
     Program PHONON v.5.4.0 (svn rev. 12590M) starts on 21Jul2016 at 16:23:18 

     This program is part of the open-source Quantum ESPRESSO suite
     for quantum simulation of materials; please cite
         "P. Giannozzi et al., J. Phys.:Condens. Matter 21 395502 (2009);
          URL http://www.quantum-espresso.org", 
     in publications or presentations arising from this work. More details at
     http://www.quantum-espresso.org/quote
 
           HOST :    x86_64-pc-linux-gnu
           ARCH :    x86_64
             CC :    icc
            CPP :    cpp
            F90 :    gfortran
            F77 :    gfortran
         DFLAGS :    -D__GFORTRAN -D__STD_F95 -D__DFTI -D__MPI -D__PARA -D__HDF5
      BLAS LIBS :    -lmkl_gf_lp64  -lmkl_sequential -lmkl_core
    LAPACK LIBS :    
       FFT LIBS :    
      MASS LIBS :    

     Parallel version (MPI), running on     2 processors
     R & G space division:  proc/nbgrp/npool/nimage =       2

     Reading data from directory:
     /home/nvarini/espresso_hdf5/espresso/tempdir/graphite.save

   Info: using nr1, nr2, nr3 values from input

   Info: using nr1, nr2, nr3 values from input

     IMPORTANT: XC functional enforced from input :
     Exchange-correlation      = VDW-DF ( 1  4  4  0 1 0)
     Any further DFT definition will be discarded
     Please, verify this is what you really want

               file C.pbe-rrkjus.UPF: wavefunction(s)  2S 2P renormalized
 
     Parallelization info
     --------------------
     sticks:   dense  smooth     PW     G-vecs:    dense   smooth      PW
     Min         132      93     30                 4555     2471     520
     Max         133      94     31                 4556     2472     525
     Sum         265     187     61                 9111     4943    1045
 


     %%%%%%%%%%%%%%%%%%%%%%%%%%%%%%%%%%%%%%%%%%%%%%%%%%%%%%%%%%%%%%%%%%%%%%%%
     %                                                                      %
     % You are using vdW-DF, which was implemented by the Thonhauser group. %
     % Please cite the following two papers that made this development      %
     % possible and the two reviews that describe the various versions:     %
     %                                                                      %
     %   T. Thonhauser et al., PRL 115, 136402 (2015).                      %
     %   T. Thonhauser et al., PRB 76, 125112 (2007).                       %
     %   K. Berland et al., Rep. Prog. Phys. 78, 066501 (2015).             %
     %   D.C. Langreth et al., J. Phys.: Condens. Matter 21, 084203 (2009). %
     %                                                                      %
     %                                                                      %
     % If you are calculating the stress with vdW-DF, please also cite:     %
     %                                                                      %
     %   R. Sabatini et al., J. Phys.: Condens. Matter 24, 424209 (2012).   %
     %                                                                      %
     %%%%%%%%%%%%%%%%%%%%%%%%%%%%%%%%%%%%%%%%%%%%%%%%%%%%%%%%%%%%%%%%%%%%%%%%



     Calculation of q =    0.3333333   0.5773503   0.0000000
 
     Parallelization info
     --------------------
     sticks:   dense  smooth     PW     G-vecs:    dense   smooth      PW
     Min         132      93     42                 4555     2470     774
     Max         133      94     43                 4556     2473     779
     Sum         265     187     85                 9111     4943    1553
 


     bravais-lattice index     =            4
     lattice parameter (alat)  =       4.6463  a.u.
     unit-cell volume          =     224.3370 (a.u.)^3
     number of atoms/cell      =            4
     number of atomic types    =            1
     number of electrons       =        16.00
     number of Kohn-Sham states=            8
     kinetic-energy cutoff     =      30.0000  Ry
     charge density cutoff     =     180.0000  Ry
     Exchange-correlation      = VDW-DF ( 1  4  4  0 1 0)

     celldm(1)=   4.646303  celldm(2)=   0.000000  celldm(3)=   2.582543
     celldm(4)=   0.000000  celldm(5)=   0.000000  celldm(6)=   0.000000

     crystal axes: (cart. coord. in units of alat)
               a(1) = (   1.000000   0.000000   0.000000 )  
               a(2) = (  -0.500000   0.866025   0.000000 )  
               a(3) = (   0.000000   0.000000   2.582543 )  

     reciprocal axes: (cart. coord. in units 2 pi/alat)
               b(1) = (  1.000000  0.577350  0.000000 )  
               b(2) = (  0.000000  1.154701  0.000000 )  
               b(3) = (  0.000000  0.000000  0.387215 )  


     PseudoPot. # 1 for C  read from file:
     /home/nvarini/espresso_hdf5/espresso/pseudo/C.pbe-rrkjus.UPF
     MD5 check sum: 00fb224312de0c5b6853bd333518df6f
     Pseudo is Ultrasoft, Zval =  4.0
     Generated by new atomic code, or converted to UPF format
     Using radial grid of  627 points,  4 beta functions with: 
                l(1) =   0
                l(2) =   0
                l(3) =   1
                l(4) =   1
     Q(r) pseudized with 0 coefficients 


     vdW kernel table read from file vdW_kernel_table
     MD5 check sum: 88c60d17101ec99b63477f765c8de84d

     atomic species   valence    mass     pseudopotential
        C              4.00    12.01070     C ( 1.00)

     24 Sym. Ops., with inversion, found



   Cartesian axes

     site n.     atom                  positions (alat units)
         1           C   tau(   1) = (   0.0000000   0.0000000   0.0000000  )
         2           C   tau(   2) = (  -0.0000000   0.5773503   0.0000000  )
         3           C   tau(   3) = (   0.0000000   0.0000000   1.2912714  )
         4           C   tau(   4) = (   0.5000000   0.2886751   1.2912714  )

     number of k points=    20
                       cart. coord. in units 2pi/alat
        k(    1) = (   0.1250000   0.2165064   0.0968038), wk =   0.1250000
        k(    2) = (   0.4583333   0.7938566   0.0968038), wk =   0.0000000
        k(    3) = (   0.1250000   0.5051815   0.0968038), wk =   0.2500000
        k(    4) = (   0.4583333   1.0825318   0.0968038), wk =   0.0000000
        k(    5) = (   0.1250000  -0.3608439   0.0968038), wk =   0.2500000
        k(    6) = (   0.4583333   0.2165064   0.0968038), wk =   0.0000000
        k(    7) = (   0.1250000  -0.0721688   0.0968038), wk =   0.2500000
        k(    8) = (   0.4583333   0.5051815   0.0968038), wk =   0.0000000
        k(    9) = (   0.3750000   0.6495191   0.0968038), wk =   0.1250000
        k(   10) = (   0.7083333   1.2268693   0.0968038), wk =   0.0000000
        k(   11) = (   0.3750000  -0.2165064   0.0968038), wk =   0.2500000
        k(   12) = (   0.7083333   0.3608439   0.0968038), wk =   0.0000000
        k(   13) = (  -0.1250000  -0.2165064  -0.0968038), wk =   0.1250000
        k(   14) = (   0.2083333   0.3608439  -0.0968038), wk =   0.0000000
        k(   15) = (  -0.1250000  -0.5051815  -0.0968038), wk =   0.2500000
        k(   16) = (   0.2083333   0.0721688  -0.0968038), wk =   0.0000000
        k(   17) = (  -0.1250000   0.3608439  -0.0968038), wk =   0.2500000
        k(   18) = (   0.2083333   0.9381942  -0.0968038), wk =   0.0000000
        k(   19) = (  -0.3750000  -0.6495191  -0.0968038), wk =   0.1250000
        k(   20) = (  -0.0416667  -0.0721688  -0.0968038), wk =   0.0000000

     Dense  grid:     9111 G-vectors     FFT dimensions: (  20,  20,  54)

     Smooth grid:     4943 G-vectors     FFT dimensions: (  18,  18,  45)

     Largest allocated arrays     est. size (Mb)     dimensions
        Kohn-Sham Wavefunctions         0.04 Mb     (     344,    8)
        NL pseudopotentials             0.17 Mb     (     344,   32)
        Each V/rho on FFT grid          0.16 Mb     (   10800)
        Each G-vector array             0.03 Mb     (    4555)
        G-vector shells                 0.00 Mb     (     525)
     Largest temporary arrays     est. size (Mb)     dimensions
        Auxiliary wavefunctions         0.17 Mb     (     344,   32)
        Each subspace H/S matrix        0.02 Mb     (      32,   32)
        Each <psi_i|beta_j> matrix      0.00 Mb     (      32,    8)

     The potential is recalculated from file :
     /home/nvarini/espresso_hdf5/espresso/tempdir/_ph0/graphite.save/charge-density.hdf5

     Starting wfc are   16 atomic wfcs

     Band Structure Calculation
     Davidson diagonalization with overlap

     ethr =  6.25E-11,  avg # of iterations = 10.7

     total cpu time spent up to now is        0.7 secs

     End of band structure calculation

          k = 0.1250 0.2165 0.0968 (   619 PWs)   bands (ev):

   -10.9292 -10.6363   0.5597   1.2917   1.3409   2.2425   2.3780   2.4123

          k = 0.4583 0.7939 0.0968 (   625 PWs)   bands (ev):

    -6.6442  -6.5249  -5.5328  -5.4468   0.5688   0.6452   5.0525   5.7051

          k = 0.1250 0.5052 0.0968 (   628 PWs)   bands (ev):

    -7.4066  -7.1849  -4.4847  -4.3166   0.0918   0.1800   4.5348   5.6329

          k = 0.4583 1.0825 0.0968 (   629 PWs)   bands (ev):

    -8.3059  -8.0616  -2.9317  -2.7944  -0.2758  -0.1855   3.6254   5.0076

          k = 0.1250-0.3608 0.0968 (   627 PWs)   bands (ev):

    -9.4801  -9.2135  -1.4960  -1.3776   0.8616   0.9353   2.2769   3.8186

          k = 0.4583 0.2165 0.0968 (   626 PWs)   bands (ev):

    -7.6295  -7.4034  -4.6661  -4.4913   1.0430   1.1090   4.2498   5.3505

          k = 0.1250-0.0722 0.0968 (   606 PWs)   bands (ev):

   -11.6656 -11.3594  -0.3285   1.4093   3.0718   3.1253   3.7433   3.7832

          k = 0.4583 0.5052 0.0968 (   630 PWs)   bands (ev):

    -6.9657  -6.7531  -4.1748  -4.0269  -1.3257  -1.2208   5.0866   6.1772

          k = 0.3750 0.6495 0.0968 (   630 PWs)   bands (ev):

    -5.8014  -5.6911  -4.8560  -4.8135  -2.1716  -2.0649   6.2356   6.8601

          k = 0.7083 1.2269 0.0968 (   630 PWs)   bands (ev):

    -6.3287  -6.1319  -4.1273  -4.0342  -2.3934  -2.3355   5.8301   6.8614

          k = 0.3750-0.2165 0.0968 (   623 PWs)   bands (ev):

    -8.7696  -8.5164  -3.1851  -3.0257   1.4468   1.5077   3.0669   4.4844

          k = 0.7083 0.3608 0.0968 (   623 PWs)   bands (ev):

    -9.7184  -9.4474  -1.5561  -1.4228   1.7496   1.8109   1.9918   3.5542

          k =-0.1250-0.2165-0.0968 (   619 PWs)   bands (ev):

   -10.9292 -10.6363   0.5597   1.2917   1.3409   2.2425   2.3780   2.4123

          k = 0.2083 0.3608-0.0968 (   625 PWs)   bands (ev):

    -9.0064  -8.7486  -1.6923  -1.6203  -0.1561  -0.1035   2.8341   4.3259

          k =-0.1250-0.5052-0.0968 (   628 PWs)   bands (ev):

    -7.4066  -7.1849  -4.4847  -4.3166   0.0918   0.1800   4.5348   5.6329

          k = 0.2083 0.0722-0.0968 (   613 PWs)   bands (ev):

   -11.1738 -10.8765   0.2653   1.6495   1.7263   1.9676   2.9880   3.0362

          k =-0.1250 0.3608-0.0968 (   627 PWs)   bands (ev):

    -9.4801  -9.2135  -1.4960  -1.3776   0.8616   0.9353   2.2769   3.8186

          k = 0.2083 0.9382-0.0968 (   621 PWs)   bands (ev):

   -10.4422 -10.1581   0.0636   0.1611   1.1420   1.9878   2.0468   2.7815

          k =-0.3750-0.6495-0.0968 (   630 PWs)   bands (ev):

    -5.8014  -5.6911  -4.8560  -4.8135  -2.1716  -2.0649   6.2356   6.8601

          k =-0.0417-0.0722-0.0968 (   594 PWs)   bands (ev):

   -11.9126 -11.6019  -0.6281   1.1269   3.9630   3.9892   4.1791   4.2019

     highest occupied level (ev):     6.8614

     Writing output data file graphite.save

                                                                                

     bravais-lattice index     =            4
     lattice parameter (alat)  =       4.6463  a.u.
     unit-cell volume          =     224.3370 (a.u.)^3
     number of atoms/cell      =            4
     number of atomic types    =            1
     kinetic-energy cut-off    =      30.0000  Ry
     charge density cut-off    =     180.0000  Ry
     convergence threshold     =      1.0E-18
     beta                      =       0.7000
     number of iterations used =            4
     Exchange-correlation      = VDW-DF ( 1  4  4  0 1 0)


     celldm(1)=    4.64630  celldm(2)=    0.00000  celldm(3)=    2.58254
     celldm(4)=    0.00000  celldm(5)=    0.00000  celldm(6)=    0.00000

     crystal axes: (cart. coord. in units of alat)
               a(1) = (  1.0000  0.0000  0.0000 )  
               a(2) = ( -0.5000  0.8660  0.0000 )  
               a(3) = (  0.0000  0.0000  2.5825 )  

     reciprocal axes: (cart. coord. in units 2 pi/alat)
               b(1) = (  1.0000  0.5774  0.0000 )  
               b(2) = (  0.0000  1.1547  0.0000 )  
               b(3) = (  0.0000  0.0000  0.3872 )  


     Atoms inside the unit cell: 

     Cartesian axes

     site n.  atom      mass           positions (alat units)
        1     C   12.0107   tau(    1) = (    0.00000    0.00000    0.00000  )
        2     C   12.0107   tau(    2) = (   -0.00000    0.57735    0.00000  )
        3     C   12.0107   tau(    3) = (    0.00000    0.00000    1.29127  )
        4     C   12.0107   tau(    4) = (    0.50000    0.28868    1.29127  )

     Computing dynamical matrix for 
                    q = (   0.3333333   0.5773503   0.0000000 )
 
     12 Sym.Ops. (no q -> -q+G )


     G cutoff =   98.4301  (   4555 G-vectors)     FFT grid: ( 20, 20, 54)
     G cutoff =   65.6201  (   2473 G-vectors)  smooth grid: ( 18, 18, 45)
     number of k points=    20
                       cart. coord. in units 2pi/alat
        k(    1) = (   0.1250000   0.2165064   0.0968038), wk =   0.1250000
        k(    2) = (   0.4583333   0.7938566   0.0968038), wk =   0.0000000
        k(    3) = (   0.1250000   0.5051815   0.0968038), wk =   0.2500000
        k(    4) = (   0.4583333   1.0825318   0.0968038), wk =   0.0000000
        k(    5) = (   0.1250000  -0.3608439   0.0968038), wk =   0.2500000
        k(    6) = (   0.4583333   0.2165064   0.0968038), wk =   0.0000000
        k(    7) = (   0.1250000  -0.0721688   0.0968038), wk =   0.2500000
        k(    8) = (   0.4583333   0.5051815   0.0968038), wk =   0.0000000
        k(    9) = (   0.3750000   0.6495191   0.0968038), wk =   0.1250000
        k(   10) = (   0.7083333   1.2268693   0.0968038), wk =   0.0000000
        k(   11) = (   0.3750000  -0.2165064   0.0968038), wk =   0.2500000
        k(   12) = (   0.7083333   0.3608439   0.0968038), wk =   0.0000000
        k(   13) = (  -0.1250000  -0.2165064  -0.0968038), wk =   0.1250000
        k(   14) = (   0.2083333   0.3608439  -0.0968038), wk =   0.0000000
        k(   15) = (  -0.1250000  -0.5051815  -0.0968038), wk =   0.2500000
        k(   16) = (   0.2083333   0.0721688  -0.0968038), wk =   0.0000000
        k(   17) = (  -0.1250000   0.3608439  -0.0968038), wk =   0.2500000
        k(   18) = (   0.2083333   0.9381942  -0.0968038), wk =   0.0000000
        k(   19) = (  -0.3750000  -0.6495191  -0.0968038), wk =   0.1250000
        k(   20) = (  -0.0416667  -0.0721688  -0.0968038), wk =   0.0000000

     PseudoPot. # 1 for C  read from file:
     /home/nvarini/espresso_hdf5/espresso/pseudo/C.pbe-rrkjus.UPF
     MD5 check sum: 00fb224312de0c5b6853bd333518df6f
     Pseudo is Ultrasoft, Zval =  4.0
     Generated by new atomic code, or converted to UPF format
     Using radial grid of  627 points,  4 beta functions with: 
                l(1) =   0
                l(2) =   0
                l(3) =   1
                l(4) =   1
     Q(r) pseudized with 0 coefficients 



     Atomic displacements:
     There are   8 irreducible representations

     Representation     1      2 modes -  To be done

     Representation     2      2 modes -  To be done

     Representation     3      1 modes -  To be done

     Representation     4      1 modes -  To be done

     Representation     5      2 modes -  To be done

     Representation     6      2 modes -  To be done

     Representation     7      1 modes -  To be done

     Representation     8      1 modes -  To be done



     Alpha used in Ewald sum =   1.8000
     PHONON       :     1.99s CPU         2.24s WALL



     Representation #  1 modes #   1  2

     Self-consistent Calculation

      iter #   1 total cpu time :     2.9 secs   av.it.:   5.1
      thresh= 1.000E-02 alpha_mix =  0.700 |ddv_scf|^2 =  5.344E-06

      iter #   2 total cpu time :     3.7 secs   av.it.:   8.8
      thresh= 2.312E-04 alpha_mix =  0.700 |ddv_scf|^2 =  3.556E-06

      iter #   3 total cpu time :     4.7 secs   av.it.:   8.4
      thresh= 1.886E-04 alpha_mix =  0.700 |ddv_scf|^2 =  1.002E-07

      iter #   4 total cpu time :     5.5 secs   av.it.:   8.4
      thresh= 3.166E-05 alpha_mix =  0.700 |ddv_scf|^2 =  6.961E-10

      iter #   5 total cpu time :     6.3 secs   av.it.:   8.3
      thresh= 2.638E-06 alpha_mix =  0.700 |ddv_scf|^2 =  1.768E-11

      iter #   6 total cpu time :     7.1 secs   av.it.:   8.4
      thresh= 4.205E-07 alpha_mix =  0.700 |ddv_scf|^2 =  6.964E-14

      iter #   7 total cpu time :     7.9 secs   av.it.:   8.4
      thresh= 2.639E-08 alpha_mix =  0.700 |ddv_scf|^2 =  8.083E-15

      iter #   8 total cpu time :     8.7 secs   av.it.:   8.8
      thresh= 8.991E-09 alpha_mix =  0.700 |ddv_scf|^2 =  3.538E-15

      iter #   9 total cpu time :     9.5 secs   av.it.:   8.3
      thresh= 5.948E-09 alpha_mix =  0.700 |ddv_scf|^2 =  3.703E-17

      iter #  10 total cpu time :    10.3 secs   av.it.:   8.5
      thresh= 6.085E-10 alpha_mix =  0.700 |ddv_scf|^2 =  2.544E-18

      iter #  11 total cpu time :    11.1 secs   av.it.:   8.7
      thresh= 1.595E-10 alpha_mix =  0.700 |ddv_scf|^2 =  3.488E-19

     End of self-consistent calculation

     Convergence has been achieved 


     Representation #  2 modes #   3  4

     Self-consistent Calculation

      iter #   1 total cpu time :    11.8 secs   av.it.:   5.1
      thresh= 1.000E-02 alpha_mix =  0.700 |ddv_scf|^2 =  3.317E-06

      iter #   2 total cpu time :    12.6 secs   av.it.:   8.8
      thresh= 1.821E-04 alpha_mix =  0.700 |ddv_scf|^2 =  4.589E-07

      iter #   3 total cpu time :    13.4 secs   av.it.:   8.4
      thresh= 6.774E-05 alpha_mix =  0.700 |ddv_scf|^2 =  1.548E-08

      iter #   4 total cpu time :    14.2 secs   av.it.:   8.5
      thresh= 1.244E-05 alpha_mix =  0.700 |ddv_scf|^2 =  1.120E-09

      iter #   5 total cpu time :    15.0 secs   av.it.:   8.4
      thresh= 3.346E-06 alpha_mix =  0.700 |ddv_scf|^2 =  2.303E-12

      iter #   6 total cpu time :    15.8 secs   av.it.:   8.5
      thresh= 1.517E-07 alpha_mix =  0.700 |ddv_scf|^2 =  3.368E-14

      iter #   7 total cpu time :    16.5 secs   av.it.:   8.1
      thresh= 1.835E-08 alpha_mix =  0.700 |ddv_scf|^2 =  2.277E-15

      iter #   8 total cpu time :    17.3 secs   av.it.:   8.3
      thresh= 4.772E-09 alpha_mix =  0.700 |ddv_scf|^2 =  6.817E-17

      iter #   9 total cpu time :    18.1 secs   av.it.:   8.8
      thresh= 8.256E-10 alpha_mix =  0.700 |ddv_scf|^2 =  3.344E-17

      iter #  10 total cpu time :    18.9 secs   av.it.:   8.4
      thresh= 5.783E-10 alpha_mix =  0.700 |ddv_scf|^2 =  1.096E-18

      iter #  11 total cpu time :    19.7 secs   av.it.:   8.9
      thresh= 1.047E-10 alpha_mix =  0.700 |ddv_scf|^2 =  8.301E-19

     End of self-consistent calculation

     Convergence has been achieved 


     Representation #  3 mode #   5

     Self-consistent Calculation

      iter #   1 total cpu time :    20.1 secs   av.it.:   5.0
      thresh= 1.000E-02 alpha_mix =  0.700 |ddv_scf|^2 =  2.425E-05

      iter #   2 total cpu time :    20.5 secs   av.it.:   8.2
      thresh= 4.924E-04 alpha_mix =  0.700 |ddv_scf|^2 =  2.287E-05

      iter #   3 total cpu time :    20.9 secs   av.it.:   7.5
      thresh= 4.783E-04 alpha_mix =  0.700 |ddv_scf|^2 =  3.849E-08

      iter #   4 total cpu time :    21.3 secs   av.it.:   7.7
      thresh= 1.962E-05 alpha_mix =  0.700 |ddv_scf|^2 =  6.286E-10

      iter #   5 total cpu time :    21.7 secs   av.it.:   7.3
      thresh= 2.507E-06 alpha_mix =  0.700 |ddv_scf|^2 =  2.243E-12

      iter #   6 total cpu time :    22.1 secs   av.it.:   7.4
      thresh= 1.498E-07 alpha_mix =  0.700 |ddv_scf|^2 =  1.188E-13

      iter #   7 total cpu time :    22.5 secs   av.it.:   7.8
      thresh= 3.446E-08 alpha_mix =  0.700 |ddv_scf|^2 =  3.614E-14

      iter #   8 total cpu time :    22.9 secs   av.it.:   7.5
      thresh= 1.901E-08 alpha_mix =  0.700 |ddv_scf|^2 =  2.013E-16

      iter #   9 total cpu time :    23.2 secs   av.it.:   7.4
      thresh= 1.419E-09 alpha_mix =  0.700 |ddv_scf|^2 =  2.656E-17

      iter #  10 total cpu time :    23.6 secs   av.it.:   7.6
      thresh= 5.153E-10 alpha_mix =  0.700 |ddv_scf|^2 =  2.343E-19

     End of self-consistent calculation

     Convergence has been achieved 


     Representation #  4 mode #   6

     Self-consistent Calculation

      iter #   1 total cpu time :    24.0 secs   av.it.:   5.0
      thresh= 1.000E-02 alpha_mix =  0.700 |ddv_scf|^2 =  3.722E-06

      iter #   2 total cpu time :    24.4 secs   av.it.:   7.8
      thresh= 1.929E-04 alpha_mix =  0.700 |ddv_scf|^2 =  4.232E-08

      iter #   3 total cpu time :    24.8 secs   av.it.:   7.7
      thresh= 2.057E-05 alpha_mix =  0.700 |ddv_scf|^2 =  2.335E-09

      iter #   4 total cpu time :    25.2 secs   av.it.:   6.7
      thresh= 4.833E-06 alpha_mix =  0.700 |ddv_scf|^2 =  3.730E-12

      iter #   5 total cpu time :    25.5 secs   av.it.:   6.9
      thresh= 1.931E-07 alpha_mix =  0.700 |ddv_scf|^2 =  2.540E-14

      iter #   6 total cpu time :    25.9 secs   av.it.:   6.2
      thresh= 1.594E-08 alpha_mix =  0.700 |ddv_scf|^2 =  1.483E-15

      iter #   7 total cpu time :    26.3 secs   av.it.:   6.4
      thresh= 3.850E-09 alpha_mix =  0.700 |ddv_scf|^2 =  7.816E-18

      iter #   8 total cpu time :    26.6 secs   av.it.:   6.0
      thresh= 2.796E-10 alpha_mix =  0.700 |ddv_scf|^2 =  9.329E-20

     End of self-consistent calculation

     Convergence has been achieved 


     Representation #  5 modes #   7  8

     Self-consistent Calculation

      iter #   1 total cpu time :    27.3 secs   av.it.:   5.0
      thresh= 1.000E-02 alpha_mix =  0.700 |ddv_scf|^2 =  6.753E-07

      iter #   2 total cpu time :    28.1 secs   av.it.:   8.7
      thresh= 8.218E-05 alpha_mix =  0.700 |ddv_scf|^2 =  5.760E-09

      iter #   3 total cpu time :    28.9 secs   av.it.:   8.5
      thresh= 7.590E-06 alpha_mix =  0.700 |ddv_scf|^2 =  4.833E-10

      iter #   4 total cpu time :    29.6 secs   av.it.:   7.3
      thresh= 2.198E-06 alpha_mix =  0.700 |ddv_scf|^2 =  1.535E-12

      iter #   5 total cpu time :    30.4 secs   av.it.:   7.8
      thresh= 1.239E-07 alpha_mix =  0.700 |ddv_scf|^2 =  1.924E-14

      iter #   6 total cpu time :    31.2 secs   av.it.:   8.1
      thresh= 1.387E-08 alpha_mix =  0.700 |ddv_scf|^2 =  1.888E-16

      iter #   7 total cpu time :    31.9 secs   av.it.:   7.6
      thresh= 1.374E-09 alpha_mix =  0.700 |ddv_scf|^2 =  1.214E-17

      iter #   8 total cpu time :    32.7 secs   av.it.:   8.0
      thresh= 3.485E-10 alpha_mix =  0.700 |ddv_scf|^2 =  8.520E-20

     End of self-consistent calculation

     Convergence has been achieved 


     Representation #  6 modes #   9 10

     Self-consistent Calculation

      iter #   1 total cpu time :    33.4 secs   av.it.:   5.1
      thresh= 1.000E-02 alpha_mix =  0.700 |ddv_scf|^2 =  5.339E-06

      iter #   2 total cpu time :    34.2 secs   av.it.:   9.1
      thresh= 2.311E-04 alpha_mix =  0.700 |ddv_scf|^2 =  4.924E-06

      iter #   3 total cpu time :    35.0 secs   av.it.:   8.4
      thresh= 2.219E-04 alpha_mix =  0.700 |ddv_scf|^2 =  4.825E-08

      iter #   4 total cpu time :    35.8 secs   av.it.:   8.4
      thresh= 2.196E-05 alpha_mix =  0.700 |ddv_scf|^2 =  9.520E-10

      iter #   5 total cpu time :    36.6 secs   av.it.:   8.6
      thresh= 3.085E-06 alpha_mix =  0.700 |ddv_scf|^2 =  3.818E-11

      iter #   6 total cpu time :    37.4 secs   av.it.:   8.2
      thresh= 6.179E-07 alpha_mix =  0.700 |ddv_scf|^2 =  9.432E-14

      iter #   7 total cpu time :    38.2 secs   av.it.:   8.3
      thresh= 3.071E-08 alpha_mix =  0.700 |ddv_scf|^2 =  1.098E-14

      iter #   8 total cpu time :    39.0 secs   av.it.:   8.8
      thresh= 1.048E-08 alpha_mix =  0.700 |ddv_scf|^2 =  4.241E-15

      iter #   9 total cpu time :    39.8 secs   av.it.:   8.3
      thresh= 6.512E-09 alpha_mix =  0.700 |ddv_scf|^2 =  3.098E-17

      iter #  10 total cpu time :    40.6 secs   av.it.:   8.7
      thresh= 5.566E-10 alpha_mix =  0.700 |ddv_scf|^2 =  2.407E-18

      iter #  11 total cpu time :    41.4 secs   av.it.:   8.5
      thresh= 1.551E-10 alpha_mix =  0.700 |ddv_scf|^2 =  3.418E-19

     End of self-consistent calculation

     Convergence has been achieved 


     Representation #  7 mode #  11

     Self-consistent Calculation

      iter #   1 total cpu time :    41.8 secs   av.it.:   4.9
      thresh= 1.000E-02 alpha_mix =  0.700 |ddv_scf|^2 =  1.741E-06

      iter #   2 total cpu time :    42.2 secs   av.it.:   8.1
      thresh= 1.319E-04 alpha_mix =  0.700 |ddv_scf|^2 =  2.110E-08

      iter #   3 total cpu time :    42.5 secs   av.it.:   6.6
      thresh= 1.452E-05 alpha_mix =  0.700 |ddv_scf|^2 =  2.182E-09

      iter #   4 total cpu time :    42.9 secs   av.it.:   6.6
      thresh= 4.671E-06 alpha_mix =  0.700 |ddv_scf|^2 =  8.172E-12

      iter #   5 total cpu time :    43.2 secs   av.it.:   6.0
      thresh= 2.859E-07 alpha_mix =  0.700 |ddv_scf|^2 =  1.388E-14

      iter #   6 total cpu time :    43.6 secs   av.it.:   6.4
      thresh= 1.178E-08 alpha_mix =  0.700 |ddv_scf|^2 =  8.184E-16

      iter #   7 total cpu time :    44.0 secs   av.it.:   6.9
      thresh= 2.861E-09 alpha_mix =  0.700 |ddv_scf|^2 =  7.986E-18

      iter #   8 total cpu time :    44.3 secs   av.it.:   5.5
      thresh= 2.826E-10 alpha_mix =  0.700 |ddv_scf|^2 =  1.426E-19

     End of self-consistent calculation

     Convergence has been achieved 


     Representation #  8 mode #  12

     Self-consistent Calculation

      iter #   1 total cpu time :    44.7 secs   av.it.:   5.0
      thresh= 1.000E-02 alpha_mix =  0.700 |ddv_scf|^2 =  3.455E-05

      iter #   2 total cpu time :    45.1 secs   av.it.:   8.1
      thresh= 5.878E-04 alpha_mix =  0.700 |ddv_scf|^2 =  4.053E-05

      iter #   3 total cpu time :    45.5 secs   av.it.:   7.4
      thresh= 6.366E-04 alpha_mix =  0.700 |ddv_scf|^2 =  4.248E-08

      iter #   4 total cpu time :    45.9 secs   av.it.:   7.5
      thresh= 2.061E-05 alpha_mix =  0.700 |ddv_scf|^2 =  7.531E-10

      iter #   5 total cpu time :    46.3 secs   av.it.:   7.2
      thresh= 2.744E-06 alpha_mix =  0.700 |ddv_scf|^2 =  1.777E-12

      iter #   6 total cpu time :    46.7 secs   av.it.:   7.7
      thresh= 1.333E-07 alpha_mix =  0.700 |ddv_scf|^2 =  1.435E-13

      iter #   7 total cpu time :    47.1 secs   av.it.:   7.8
      thresh= 3.789E-08 alpha_mix =  0.700 |ddv_scf|^2 =  9.330E-14

      iter #   8 total cpu time :    47.5 secs   av.it.:   7.5
      thresh= 3.054E-08 alpha_mix =  0.700 |ddv_scf|^2 =  4.669E-16

      iter #   9 total cpu time :    47.9 secs   av.it.:   7.7
      thresh= 2.161E-09 alpha_mix =  0.700 |ddv_scf|^2 =  5.885E-17

      iter #  10 total cpu time :    48.3 secs   av.it.:   7.5
      thresh= 7.672E-10 alpha_mix =  0.700 |ddv_scf|^2 =  1.312E-18

      iter #  11 total cpu time :    48.7 secs   av.it.:   7.7
      thresh= 1.146E-10 alpha_mix =  0.700 |ddv_scf|^2 =  1.801E-19

     End of self-consistent calculation

     Convergence has been achieved 
 
     Number of q in the star =    2
     List of q in the star:
          1   0.333333330   0.577350270   0.000000000
          2  -0.333333330  -0.577350270   0.000000000

     Diagonalizing the dynamical matrix

     q = (    0.333333330   0.577350270   0.000000000 ) 

 **************************************************************************
     freq (    1) =      15.972970 [THz] =     532.800929 [cm-1]
     freq (    2) =      16.238005 [THz] =     541.641548 [cm-1]
     freq (    3) =      16.785125 [THz] =     559.891514 [cm-1]
     freq (    4) =      16.785125 [THz] =     559.891514 [cm-1]
     freq (    5) =      29.961028 [THz] =     999.392327 [cm-1]
     freq (    6) =      29.961028 [THz] =     999.392327 [cm-1]
     freq (    7) =      35.930582 [THz] =    1198.515217 [cm-1]
     freq (    8) =      35.979561 [THz] =    1200.148962 [cm-1]
     freq (    9) =      36.083309 [THz] =    1203.609625 [cm-1]
     freq (   10) =      36.083309 [THz] =    1203.609625 [cm-1]
     freq (   11) =      37.948463 [THz] =    1265.824487 [cm-1]
     freq (   12) =      37.948463 [THz] =    1265.824487 [cm-1]
 **************************************************************************
 
     init_run     :      0.09s CPU      0.09s WALL (       1 calls)
     electrons    :      0.60s CPU      0.61s WALL (       1 calls)

     Called by init_run:
     wfcinit      :      0.00s CPU      0.00s WALL (       1 calls)
     potinit      :      0.04s CPU      0.04s WALL (       1 calls)

     Called by electrons:
     c_bands      :      0.60s CPU      0.61s WALL (       1 calls)
     v_of_rho     :      0.07s CPU      0.07s WALL (       2 calls)
     newd         :      0.01s CPU      0.01s WALL (       2 calls)
     vdW_ffts     :      2.13s CPU      2.16s WALL (     238 calls)

     Called by c_bands:
     init_us_2    :      0.06s CPU      0.10s WALL (     920 calls)
     cegterg      :      0.49s CPU      0.50s WALL (      20 calls)

     Called by sum_band:

     Called by *egterg:
     h_psi        :     18.00s CPU     18.35s WALL (   11873 calls)
     s_psi        :      1.45s CPU      1.46s WALL (   24683 calls)
     g_psi        :      0.01s CPU      0.01s WALL (     213 calls)
     cdiaghg      :      0.06s CPU      0.06s WALL (     233 calls)

     Called by h_psi:
     add_vuspsi   :      0.64s CPU      0.72s WALL (   11873 calls)

     General routines
     calbec       :      2.14s CPU      2.09s WALL (   26613 calls)
     fft          :      2.77s CPU      2.92s WALL (   13124 calls)
     ffts         :      0.05s CPU      0.06s WALL (     480 calls)
     fftw         :     18.33s CPU     18.41s WALL (  199092 calls)
     interpolate  :      0.07s CPU      0.09s WALL (     252 calls)
     davcio       :      0.13s CPU      0.28s WALL (    4481 calls)
 
     Parallel routines
     fft_scatter  :      5.23s CPU      5.61s WALL (  212696 calls)
 
     PHONON       :    46.22s CPU        48.71s WALL

     INITIALIZATION: 
     phq_setup    :      0.02s CPU      0.02s WALL (       1 calls)
     phq_init     :      0.50s CPU      0.51s WALL (       1 calls)
 
     phq_init     :      0.50s CPU      0.51s WALL (       1 calls)
     init_vloc    :      0.01s CPU      0.01s WALL (       2 calls)
     init_us_1    :      0.05s CPU      0.05s WALL (       2 calls)
     newd         :      0.01s CPU      0.01s WALL (       2 calls)
     dvanqq       :      0.15s CPU      0.15s WALL (       1 calls)
     drho         :      0.29s CPU      0.30s WALL (       1 calls)
 
     DYNAMICAL MATRIX:
     dynmat0      :      0.03s CPU      0.03s WALL (       1 calls)
     phqscf       :     44.23s CPU     46.46s WALL (       1 calls)
     dynmatrix    :      0.00s CPU      0.00s WALL (       1 calls)
 
     phqscf       :     44.23s CPU     46.46s WALL (       1 calls)
     solve_linter :     44.13s CPU     46.34s WALL (       8 calls)
     drhodv       :      0.09s CPU      0.09s WALL (       8 calls)
 
     dynmat0      :      0.03s CPU      0.03s WALL (       1 calls)
     dynmat_us    :      0.02s CPU      0.02s WALL (       1 calls)
     d2ionq       :      0.00s CPU      0.00s WALL (       1 calls)
 
     dynmat_us    :      0.02s CPU      0.02s WALL (       1 calls)
     addusdynmat  :      0.00s CPU      0.00s WALL (       1 calls)
 
     phqscf       :     44.23s CPU     46.46s WALL (       1 calls)
     solve_linter :     44.13s CPU     46.34s WALL (       8 calls)
 
     solve_linter :     44.13s CPU     46.34s WALL (       8 calls)
     dvqpsi_us    :      0.28s CPU      0.29s WALL (     120 calls)
     ortho        :      0.29s CPU      0.31s WALL (    1190 calls)
     cgsolve      :     21.59s CPU     22.08s WALL (    1190 calls)
     incdrhoscf   :      2.35s CPU      2.40s WALL (    1190 calls)
     addusddens   :      0.83s CPU      0.83s WALL (      86 calls)
     vpsifft      :      1.77s CPU      1.86s WALL (    1070 calls)
     dv_of_drho   :     13.34s CPU     14.33s WALL (     119 calls)
     mix_pot      :      0.11s CPU      0.25s WALL (      78 calls)
     psymdvscf    :      1.58s CPU      1.58s WALL (      78 calls)
     newdq        :      0.96s CPU      1.02s WALL (      78 calls)
     adddvscf     :      0.10s CPU      0.09s WALL (    1070 calls)
     drhodvus     :      0.00s CPU      0.01s WALL (       8 calls)
 
     dvqpsi_us    :      0.28s CPU      0.29s WALL (     120 calls)
     dvqpsi_us_on :      0.06s CPU      0.06s WALL (     120 calls)
 
     cgsolve      :     21.59s CPU     22.08s WALL (    1190 calls)
     ch_psi       :     20.97s CPU     21.41s WALL (   11620 calls)
 
     ch_psi       :     20.97s CPU     21.41s WALL (   11620 calls)
     last         :      2.57s CPU      2.63s WALL (   11620 calls)
 
     add_vuspsi   :      0.64s CPU      0.72s WALL (   11873 calls)
 
     incdrhoscf   :      2.35s CPU      2.40s WALL (    1190 calls)
     addusdbec    :      0.13s CPU      0.13s WALL (    1310 calls)
 
     drhodvus     :      0.00s CPU      0.01s WALL (       8 calls)
 
      General routines
     calbec       :      2.14s CPU      2.09s WALL (   26613 calls)
     fft          :      2.77s CPU      2.92s WALL (   13124 calls)
     ffts         :      0.05s CPU      0.06s WALL (     480 calls)
     fftw         :     18.33s CPU     18.41s WALL (  199092 calls)
     davcio       :      0.13s CPU      0.28s WALL (    4481 calls)
     write_rec    :      0.15s CPU      0.43s WALL (      86 calls)
 
 
     PHONON       :    46.22s CPU        48.71s WALL

 
   This run was terminated on:  16:24: 7  21Jul2016            

=------------------------------------------------------------------------------=
   JOB DONE.
=------------------------------------------------------------------------------=
