
     Program PWSCF v.5.4.0 (svn rev. 12620M) starts on 28Jul2016 at 11:35:47 

     This program is part of the open-source Quantum ESPRESSO suite
     for quantum simulation of materials; please cite
         "P. Giannozzi et al., J. Phys.:Condens. Matter 21 395502 (2009);
          URL http://www.quantum-espresso.org", 
     in publications or presentations arising from this work. More details at
     http://www.quantum-espresso.org/quote
 
           HOST :    x86_64-pc-linux-gnu
           ARCH :    x86_64
             CC :    icc
            CPP :    cpp
            F90 :    ifort
            F77 :    ifort
         DFLAGS :    -D__INTEL -D__FFTW -D__MPI -D__PARA -D__HDF5
      BLAS LIBS :    -lmkl_intel_lp64  -lmkl_sequential -lmkl_core
    LAPACK LIBS :    
       FFT LIBS :    
      MASS LIBS :    

     Parallel version (MPI), running on     2 processors
     R & G space division:  proc/nbgrp/npool/nimage =       2
     Waiting for input...
     Reading input from standard input

     Current dimensions of program PWSCF are:
     Max number of different atomic species (ntypx) = 10
     Max number of k-points (npk) =  40000
     Max angular momentum in pseudopotentials (lmaxx) =  3
               file C.pbe-rrkjus.UPF: wavefunction(s)  2S 2P renormalized

     -------------------------------------
     Parameters for Dispersion Correction:
     -------------------------------------
       atom      VdW radius       C_6     

        C          2.744         60.710

     Subspace diagonalization in iterative solution of the eigenvalue problem:
     a serial algorithm will be used

 
     Parallelization info
     --------------------
     sticks:   dense  smooth     PW     G-vecs:    dense   smooth      PW
     Min         132      93     30                 4555     2471     520
     Max         133      94     31                 4556     2472     525
     Sum         265     187     61                 9111     4943    1045
 


     bravais-lattice index     =            4
     lattice parameter (alat)  =       4.6463  a.u.
     unit-cell volume          =     224.3370 (a.u.)^3
     number of atoms/cell      =            4
     number of atomic types    =            1
     number of electrons       =        16.00
     number of Kohn-Sham states=            8
     kinetic-energy cutoff     =      30.0000  Ry
     charge density cutoff     =     180.0000  Ry
     convergence threshold     =      1.0E-12
     mixing beta               =       0.7000
     number of iterations used =            8  plain     mixing
     Exchange-correlation      =  SLA  PW   PBE  PBE ( 1  4  3  4 0 0)

     celldm(1)=   4.646303  celldm(2)=   0.000000  celldm(3)=   2.582543
     celldm(4)=   0.000000  celldm(5)=   0.000000  celldm(6)=   0.000000

     crystal axes: (cart. coord. in units of alat)
               a(1) = (   1.000000   0.000000   0.000000 )  
               a(2) = (  -0.500000   0.866025   0.000000 )  
               a(3) = (   0.000000   0.000000   2.582543 )  

     reciprocal axes: (cart. coord. in units 2 pi/alat)
               b(1) = (  1.000000  0.577350  0.000000 )  
               b(2) = (  0.000000  1.154701  0.000000 )  
               b(3) = (  0.000000  0.000000  0.387215 )  


     PseudoPot. # 1 for C  read from file:
     /home/nvarini/espresso_hdf5/espresso/pseudo/C.pbe-rrkjus.UPF
     MD5 check sum: 00fb224312de0c5b6853bd333518df6f
     Pseudo is Ultrasoft, Zval =  4.0
     Generated by new atomic code, or converted to UPF format
     Using radial grid of  627 points,  4 beta functions with: 
                l(1) =   0
                l(2) =   0
                l(3) =   1
                l(4) =   1
     Q(r) pseudized with 0 coefficients 


     atomic species   valence    mass     pseudopotential
        C              4.00    12.00000     C ( 1.00)

     24 Sym. Ops., with inversion, found (12 have fractional translation)



   Cartesian axes

     site n.     atom                  positions (alat units)
         1           C   tau(   1) = (   0.0000000   0.0000000   0.0000000  )
         2           C   tau(   2) = (  -0.0000000   0.5773503   0.0000000  )
         3           C   tau(   3) = (   0.0000000   0.0000000   1.2912714  )
         4           C   tau(   4) = (   0.5000000   0.2886751   1.2912714  )

     number of k points=     6
                       cart. coord. in units 2pi/alat
        k(    1) = (   0.1250000   0.2165064   0.0968038), wk =   0.2500000
        k(    2) = (   0.1250000   0.5051815   0.0968038), wk =   0.5000000
        k(    3) = (   0.1250000  -0.3608439   0.0968038), wk =   0.5000000
        k(    4) = (   0.1250000  -0.0721688   0.0968038), wk =   0.2500000
        k(    5) = (   0.3750000   0.6495191   0.0968038), wk =   0.2500000
        k(    6) = (   0.3750000  -0.2165064   0.0968038), wk =   0.2500000

     Dense  grid:     9111 G-vectors     FFT dimensions: (  20,  20,  54)

     Smooth grid:     4943 G-vectors     FFT dimensions: (  18,  18,  45)

     Largest allocated arrays     est. size (Mb)     dimensions
        Kohn-Sham Wavefunctions         0.04 Mb     (     321,    8)
        NL pseudopotentials             0.16 Mb     (     321,   32)
        Each V/rho on FFT grid          0.16 Mb     (   10800)
        Each G-vector array             0.03 Mb     (    4555)
        G-vector shells                 0.00 Mb     (     525)
     Largest temporary arrays     est. size (Mb)     dimensions
        Auxiliary wavefunctions         0.16 Mb     (     321,   32)
        Each subspace H/S matrix        0.02 Mb     (      32,   32)
        Each <psi_i|beta_j> matrix      0.00 Mb     (      32,    8)
        Arrays for rho mixing           1.32 Mb     (   10800,    8)

     Initial potential from superposition of free atoms

     starting charge   15.99979, renormalised to   16.00000
     Starting wfc are   16 randomized atomic wfcs

     total cpu time spent up to now is        0.1 secs

     per-process dynamical memory:    13.7 Mb

     Self-consistent Calculation

     iteration #  1     ecut=    30.00 Ry     beta=0.70
     Davidson diagonalization with overlap
     ethr =  1.00E-02,  avg # of iterations =  2.0

     total cpu time spent up to now is        0.5 secs

     total energy              =     -45.55800003 Ry
     Harris-Foulkes estimate   =     -45.78069193 Ry
     estimated scf accuracy    <       0.38677852 Ry

     iteration #  2     ecut=    30.00 Ry     beta=0.70
     Davidson diagonalization with overlap
     ethr =  2.42E-03,  avg # of iterations =  2.0

     total cpu time spent up to now is        0.5 secs

     total energy              =     -45.61208024 Ry
     Harris-Foulkes estimate   =     -45.61201711 Ry
     estimated scf accuracy    <       0.00421537 Ry

     iteration #  3     ecut=    30.00 Ry     beta=0.70
     Davidson diagonalization with overlap
     ethr =  2.63E-05,  avg # of iterations =  2.5

     total cpu time spent up to now is        0.6 secs

     total energy              =     -45.61273817 Ry
     Harris-Foulkes estimate   =     -45.61268954 Ry
     estimated scf accuracy    <       0.00026843 Ry

     iteration #  4     ecut=    30.00 Ry     beta=0.70
     Davidson diagonalization with overlap
     ethr =  1.68E-06,  avg # of iterations =  2.0

     total cpu time spent up to now is        0.7 secs

     total energy              =     -45.61276673 Ry
     Harris-Foulkes estimate   =     -45.61276663 Ry
     estimated scf accuracy    <       0.00000288 Ry

     iteration #  5     ecut=    30.00 Ry     beta=0.70
     Davidson diagonalization with overlap
     ethr =  1.80E-08,  avg # of iterations =  3.5

     total cpu time spent up to now is        0.7 secs

     total energy              =     -45.61276911 Ry
     Harris-Foulkes estimate   =     -45.61276899 Ry
     estimated scf accuracy    <       0.00000009 Ry

     iteration #  6     ecut=    30.00 Ry     beta=0.70
     Davidson diagonalization with overlap
     ethr =  5.32E-10,  avg # of iterations =  3.0

     total cpu time spent up to now is        0.8 secs

     total energy              =     -45.61276913 Ry
     Harris-Foulkes estimate   =     -45.61276914 Ry
     estimated scf accuracy    <       0.00000003 Ry

     iteration #  7     ecut=    30.00 Ry     beta=0.70
     Davidson diagonalization with overlap
     ethr =  1.75E-10,  avg # of iterations =  2.7

     total cpu time spent up to now is        0.9 secs

     total energy              =     -45.61276914 Ry
     Harris-Foulkes estimate   =     -45.61276914 Ry
     estimated scf accuracy    <          1.5E-09 Ry

     iteration #  8     ecut=    30.00 Ry     beta=0.70
     Davidson diagonalization with overlap
     ethr =  9.25E-12,  avg # of iterations =  1.7

     total cpu time spent up to now is        0.9 secs

     total energy              =     -45.61276914 Ry
     Harris-Foulkes estimate   =     -45.61276914 Ry
     estimated scf accuracy    <          4.3E-10 Ry

     iteration #  9     ecut=    30.00 Ry     beta=0.70
     Davidson diagonalization with overlap
     ethr =  2.66E-12,  avg # of iterations =  2.7

     total cpu time spent up to now is        1.0 secs

     total energy              =     -45.61276914 Ry
     Harris-Foulkes estimate   =     -45.61276914 Ry
     estimated scf accuracy    <          9.7E-11 Ry

     iteration # 10     ecut=    30.00 Ry     beta=0.70
     Davidson diagonalization with overlap
     ethr =  6.04E-13,  avg # of iterations =  2.5

     total cpu time spent up to now is        1.1 secs

     total energy              =     -45.61276914 Ry
     Harris-Foulkes estimate   =     -45.61276914 Ry
     estimated scf accuracy    <          1.4E-12 Ry

     iteration # 11     ecut=    30.00 Ry     beta=0.70
     Davidson diagonalization with overlap
     ethr =  1.00E-13,  avg # of iterations =  1.2

     total cpu time spent up to now is        1.1 secs

     End of self-consistent calculation

          k = 0.1250 0.2165 0.0968 (   619 PWs)   bands (ev):

   -10.8945 -10.5952   0.5344   1.4501   1.5006   2.2444   2.5206   2.5563

          k = 0.1250 0.5052 0.0968 (   628 PWs)   bands (ev):

    -7.3330  -7.1045  -4.4133  -4.2383   0.2015   0.2933   4.5392   5.6590

          k = 0.1250-0.3608 0.0968 (   627 PWs)   bands (ev):

    -9.4327  -9.1599  -1.3776  -1.2545   0.9774   1.0547   2.2612   3.8298

          k = 0.1250-0.0722 0.0968 (   606 PWs)   bands (ev):

   -11.6367 -11.3241  -0.3581   1.4069   3.2479   3.3034   3.9269   3.9682

          k = 0.3750 0.6495 0.0968 (   630 PWs)   bands (ev):

    -5.6886  -5.5758  -4.7821  -4.7335  -2.1298  -2.0155   6.2547   6.8861

          k = 0.3750-0.2165 0.0968 (   623 PWs)   bands (ev):

    -8.7147  -8.4553  -3.0976  -2.9327   1.5908   1.6536   3.0578   4.5017

     highest occupied level (ev):     6.8861

!    total energy              =     -45.61276914 Ry
     Harris-Foulkes estimate   =     -45.61276914 Ry
     estimated scf accuracy    <          8.9E-13 Ry

     The total energy is the sum of the following terms:

     one-electron contribution =      -7.06559457 Ry
     hartree contribution      =      11.83975345 Ry
     xc contribution           =     -14.07675771 Ry
     ewald contribution        =     -36.26917740 Ry
     Dispersion Correction     =      -0.04099291 Ry

     convergence has been achieved in  11 iterations

     Writing output data file graphite.save
 
     init_run     :      0.09s CPU      0.10s WALL (       1 calls)
     electrons    :      0.98s CPU      0.99s WALL (       1 calls)

     Called by init_run:
     wfcinit      :      0.02s CPU      0.03s WALL (       1 calls)
     potinit      :      0.01s CPU      0.01s WALL (       1 calls)

     Called by electrons:
     c_bands      :      0.44s CPU      0.46s WALL (      11 calls)
     sum_band     :      0.13s CPU      0.13s WALL (      11 calls)
     v_of_rho     :      0.08s CPU      0.08s WALL (      12 calls)
     newd         :      0.03s CPU      0.03s WALL (      12 calls)
     mix_rho      :      0.01s CPU      0.01s WALL (      11 calls)

     Called by c_bands:
     init_us_2    :      0.02s CPU      0.01s WALL (     138 calls)
     cegterg      :      0.40s CPU      0.41s WALL (      66 calls)

     Called by sum_band:
     sum_band:bec :      0.00s CPU      0.00s WALL (      66 calls)
     addusdens    :      0.04s CPU      0.04s WALL (      11 calls)

     Called by *egterg:
     h_psi        :      0.32s CPU      0.34s WALL (     226 calls)
     s_psi        :      0.02s CPU      0.01s WALL (     226 calls)
     g_psi        :      0.00s CPU      0.00s WALL (     154 calls)
     cdiaghg      :      0.04s CPU      0.04s WALL (     220 calls)

     Called by h_psi:
     add_vuspsi   :      0.01s CPU      0.01s WALL (     226 calls)

     General routines
     calbec       :      0.03s CPU      0.02s WALL (     292 calls)
     fft          :      0.03s CPU      0.04s WALL (     187 calls)
     ffts         :      0.00s CPU      0.00s WALL (      23 calls)
     fftw         :      0.31s CPU      0.32s WALL (    3600 calls)
     interpolate  :      0.01s CPU      0.01s WALL (      23 calls)
 
     Parallel routines
     fft_scatter  :      0.08s CPU      0.08s WALL (    3810 calls)
 
     PWSCF        :     1.14s CPU         1.18s WALL

 
   This run was terminated on:  11:35:48  28Jul2016            

=------------------------------------------------------------------------------=
   JOB DONE.
=------------------------------------------------------------------------------=
