
     Program PHONON v.5.4.0 (svn rev. 12782M) starts on 18Aug2016 at 16:51:32 

     This program is part of the open-source Quantum ESPRESSO suite
     for quantum simulation of materials; please cite
         "P. Giannozzi et al., J. Phys.:Condens. Matter 21 395502 (2009);
          URL http://www.quantum-espresso.org", 
     in publications or presentations arising from this work. More details at
     http://www.quantum-espresso.org/quote
 
           HOST :    x86_64-pc-linux-gnu
           ARCH :    x86_64
             CC :    icc
            CPP :    cpp
            F90 :    ifort
            F77 :    ifort
         DFLAGS :    -D__INTEL -D__FFTW -D__MPI -D__PARA -D__HDF5
      BLAS LIBS :    -lmkl_intel_lp64  -lmkl_sequential -lmkl_core
    LAPACK LIBS :    
       FFT LIBS :    
      MASS LIBS :    

     Parallel version (MPI), running on     2 processors
     R & G space division:  proc/nbgrp/npool/nimage =       2

     Reading data from directory:
     /home/nvarini/espresso_hdf5/espresso/tempdir/graphite.save

   Info: using nr1, nr2, nr3 values from input

   Info: using nr1, nr2, nr3 values from input

     IMPORTANT: XC functional enforced from input :
     Exchange-correlation      = VDW-DF ( 1  4  4  0 1 0)
     Any further DFT definition will be discarded
     Please, verify this is what you really want

               file C.pbe-rrkjus.UPF: wavefunction(s)  2S 2P renormalized
 
     Parallelization info
     --------------------
     sticks:   dense  smooth     PW     G-vecs:    dense   smooth      PW
     Min         132      93     30                 4553     2471     520
     Max         133      94     31                 4558     2472     525
     Sum         265     187     61                 9111     4943    1045
 


     %%%%%%%%%%%%%%%%%%%%%%%%%%%%%%%%%%%%%%%%%%%%%%%%%%%%%%%%%%%%%%%%%%%%%%%%
     %                                                                      %
     % You are using vdW-DF, which was implemented by the Thonhauser group. %
     % Please cite the following two papers that made this development      %
     % possible and the two reviews that describe the various versions:     %
     %                                                                      %
     %   T. Thonhauser et al., PRL 115, 136402 (2015).                      %
     %   T. Thonhauser et al., PRB 76, 125112 (2007).                       %
     %   K. Berland et al., Rep. Prog. Phys. 78, 066501 (2015).             %
     %   D.C. Langreth et al., J. Phys.: Condens. Matter 21, 084203 (2009). %
     %                                                                      %
     %                                                                      %
     % If you are calculating the stress with vdW-DF, please also cite:     %
     %                                                                      %
     %   R. Sabatini et al., J. Phys.: Condens. Matter 24, 424209 (2012).   %
     %                                                                      %
     %%%%%%%%%%%%%%%%%%%%%%%%%%%%%%%%%%%%%%%%%%%%%%%%%%%%%%%%%%%%%%%%%%%%%%%%



     Calculation of q =    0.0000000   0.0000000   0.0000000

                                                                                

     bravais-lattice index     =            4
     lattice parameter (alat)  =       4.6463  a.u.
     unit-cell volume          =     224.3370 (a.u.)^3
     number of atoms/cell      =            4
     number of atomic types    =            1
     kinetic-energy cut-off    =      30.0000  Ry
     charge density cut-off    =     180.0000  Ry
     convergence threshold     =      1.0E-18
     beta                      =       0.7000
     number of iterations used =            4
     Exchange-correlation      = VDW-DF ( 1  4  4  0 1 0)


     celldm(1)=    4.64630  celldm(2)=    0.00000  celldm(3)=    2.58254
     celldm(4)=    0.00000  celldm(5)=    0.00000  celldm(6)=    0.00000

     crystal axes: (cart. coord. in units of alat)
               a(1) = (  1.0000  0.0000  0.0000 )  
               a(2) = ( -0.5000  0.8660  0.0000 )  
               a(3) = (  0.0000  0.0000  2.5825 )  

     reciprocal axes: (cart. coord. in units 2 pi/alat)
               b(1) = (  1.0000  0.5774  0.0000 )  
               b(2) = (  0.0000  1.1547  0.0000 )  
               b(3) = (  0.0000  0.0000  0.3872 )  


     Atoms inside the unit cell: 

     Cartesian axes

     site n.  atom      mass           positions (alat units)
        1     C   12.0107   tau(    1) = (    0.00000    0.00000    0.00000  )
        2     C   12.0107   tau(    2) = (   -0.00000    0.57735    0.00000  )
        3     C   12.0107   tau(    3) = (    0.00000    0.00000    1.29127  )
        4     C   12.0107   tau(    4) = (    0.50000    0.28868    1.29127  )

     Computing dynamical matrix for 
                    q = (   0.0000000   0.0000000   0.0000000 )
 
     25 Sym.Ops. (with q -> -q+G )


     G cutoff =   98.4301  (   4558 G-vectors)     FFT grid: ( 20, 20, 54)
     G cutoff =   65.6201  (   2471 G-vectors)  smooth grid: ( 18, 18, 45)
     number of k points=     6
                       cart. coord. in units 2pi/alat
        k(    1) = (   0.1250000   0.2165064   0.0968038), wk =   0.2500000
        k(    2) = (   0.1250000   0.5051815   0.0968038), wk =   0.5000000
        k(    3) = (   0.1250000  -0.3608439   0.0968038), wk =   0.5000000
        k(    4) = (   0.1250000  -0.0721688   0.0968038), wk =   0.2500000
        k(    5) = (   0.3750000   0.6495191   0.0968038), wk =   0.2500000
        k(    6) = (   0.3750000  -0.2165064   0.0968038), wk =   0.2500000

     PseudoPot. # 1 for C  read from file:
     /home/nvarini/espresso_hdf5/espresso/pseudo/C.pbe-rrkjus.UPF
     MD5 check sum: 00fb224312de0c5b6853bd333518df6f
     Pseudo is Ultrasoft, Zval =  4.0
     Generated by new atomic code, or converted to UPF format
     Using radial grid of  627 points,  4 beta functions with: 
                l(1) =   0
                l(2) =   0
                l(3) =   1
                l(4) =   1
     Q(r) pseudized with 0 coefficients 


     Mode symmetry, D_6h(6/mmm) point group:


     Atomic displacements:
     There are   8 irreducible representations

     Representation     1      1 modes -B_1g  To be done

     Representation     2      1 modes -B_1g  To be done

     Representation     3      2 modes -E_2g  To be done

     Representation     4      2 modes -E_2g  To be done

     Representation     5      1 modes -A_2u  To be done

     Representation     6      1 modes -A_2u  To be done

     Representation     7      2 modes -E_1u  To be done

     Representation     8      2 modes -E_1u  To be done



     Alpha used in Ewald sum =   1.8000
     PHONON       :     0.97s CPU         0.98s WALL



     Representation #  1 mode #   1

     Self-consistent Calculation

      iter #   1 total cpu time :     1.3 secs   av.it.:   5.3
      thresh= 1.000E-02 alpha_mix =  0.700 |ddv_scf|^2 =  2.163E-04

      iter #   2 total cpu time :     1.6 secs   av.it.:   7.0
      thresh= 1.471E-03 alpha_mix =  0.700 |ddv_scf|^2 =  2.801E-04

      iter #   3 total cpu time :     1.9 secs   av.it.:   6.3
      thresh= 1.674E-03 alpha_mix =  0.700 |ddv_scf|^2 =  1.214E-08

      iter #   4 total cpu time :     2.2 secs   av.it.:   7.0
      thresh= 1.102E-05 alpha_mix =  0.700 |ddv_scf|^2 =  3.170E-10

      iter #   5 total cpu time :     2.5 secs   av.it.:   6.5
      thresh= 1.780E-06 alpha_mix =  0.700 |ddv_scf|^2 =  1.004E-11

      iter #   6 total cpu time :     2.8 secs   av.it.:   6.8
      thresh= 3.169E-07 alpha_mix =  0.700 |ddv_scf|^2 =  1.424E-13

      iter #   7 total cpu time :     3.1 secs   av.it.:   7.0
      thresh= 3.774E-08 alpha_mix =  0.700 |ddv_scf|^2 =  6.469E-15

      iter #   8 total cpu time :     3.4 secs   av.it.:   6.7
      thresh= 8.043E-09 alpha_mix =  0.700 |ddv_scf|^2 =  1.897E-17

      iter #   9 total cpu time :     3.6 secs   av.it.:   6.7
      thresh= 4.356E-10 alpha_mix =  0.700 |ddv_scf|^2 =  2.142E-18

      iter #  10 total cpu time :     3.9 secs   av.it.:   6.5
      thresh= 1.464E-10 alpha_mix =  0.700 |ddv_scf|^2 =  8.131E-20

     End of self-consistent calculation

     Convergence has been achieved 


     Representation #  2 mode #   2

     Self-consistent Calculation

      iter #   1 total cpu time :     4.2 secs   av.it.:   5.3
      thresh= 1.000E-02 alpha_mix =  0.700 |ddv_scf|^2 =  2.158E-04

      iter #   2 total cpu time :     4.5 secs   av.it.:   7.2
      thresh= 1.469E-03 alpha_mix =  0.700 |ddv_scf|^2 =  2.795E-04

      iter #   3 total cpu time :     4.8 secs   av.it.:   6.3
      thresh= 1.672E-03 alpha_mix =  0.700 |ddv_scf|^2 =  1.404E-08

      iter #   4 total cpu time :     5.1 secs   av.it.:   7.0
      thresh= 1.185E-05 alpha_mix =  0.700 |ddv_scf|^2 =  3.489E-10

      iter #   5 total cpu time :     5.4 secs   av.it.:   6.3
      thresh= 1.868E-06 alpha_mix =  0.700 |ddv_scf|^2 =  1.145E-11

      iter #   6 total cpu time :     5.7 secs   av.it.:   7.0
      thresh= 3.383E-07 alpha_mix =  0.700 |ddv_scf|^2 =  1.384E-13

      iter #   7 total cpu time :     6.0 secs   av.it.:   7.0
      thresh= 3.720E-08 alpha_mix =  0.700 |ddv_scf|^2 =  5.874E-15

      iter #   8 total cpu time :     6.3 secs   av.it.:   6.7
      thresh= 7.664E-09 alpha_mix =  0.700 |ddv_scf|^2 =  1.674E-17

      iter #   9 total cpu time :     6.6 secs   av.it.:   6.7
      thresh= 4.092E-10 alpha_mix =  0.700 |ddv_scf|^2 =  1.985E-18

      iter #  10 total cpu time :     6.9 secs   av.it.:   6.8
      thresh= 1.409E-10 alpha_mix =  0.700 |ddv_scf|^2 =  7.749E-20

     End of self-consistent calculation

     Convergence has been achieved 


     Representation #  3 modes #   3  4

     Self-consistent Calculation

      iter #   1 total cpu time :     7.4 secs   av.it.:   5.0
      thresh= 1.000E-02 alpha_mix =  0.700 |ddv_scf|^2 =  2.952E-07

      iter #   2 total cpu time :     8.0 secs   av.it.:   9.0
      thresh= 5.433E-05 alpha_mix =  0.700 |ddv_scf|^2 =  6.667E-09

      iter #   3 total cpu time :     8.6 secs   av.it.:   8.1
      thresh= 8.165E-06 alpha_mix =  0.700 |ddv_scf|^2 =  4.008E-10

      iter #   4 total cpu time :     9.2 secs   av.it.:   7.3
      thresh= 2.002E-06 alpha_mix =  0.700 |ddv_scf|^2 =  8.556E-13

      iter #   5 total cpu time :     9.7 secs   av.it.:   7.8
      thresh= 9.250E-08 alpha_mix =  0.700 |ddv_scf|^2 =  4.133E-14

      iter #   6 total cpu time :    10.3 secs   av.it.:   7.7
      thresh= 2.033E-08 alpha_mix =  0.700 |ddv_scf|^2 =  1.830E-16

      iter #   7 total cpu time :    10.9 secs   av.it.:   6.9
      thresh= 1.353E-09 alpha_mix =  0.700 |ddv_scf|^2 =  1.615E-17

      iter #   8 total cpu time :    11.5 secs   av.it.:   7.2
      thresh= 4.019E-10 alpha_mix =  0.700 |ddv_scf|^2 =  7.688E-20

     End of self-consistent calculation

     Convergence has been achieved 


     Representation #  4 modes #   5  6

     Self-consistent Calculation

      iter #   1 total cpu time :    12.0 secs   av.it.:   5.0
      thresh= 1.000E-02 alpha_mix =  0.700 |ddv_scf|^2 =  2.886E-07

      iter #   2 total cpu time :    12.6 secs   av.it.:   9.0
      thresh= 5.372E-05 alpha_mix =  0.700 |ddv_scf|^2 =  5.261E-09

      iter #   3 total cpu time :    13.2 secs   av.it.:   8.2
      thresh= 7.253E-06 alpha_mix =  0.700 |ddv_scf|^2 =  3.308E-10

      iter #   4 total cpu time :    13.8 secs   av.it.:   7.3
      thresh= 1.819E-06 alpha_mix =  0.700 |ddv_scf|^2 =  6.154E-13

      iter #   5 total cpu time :    14.4 secs   av.it.:   8.0
      thresh= 7.845E-08 alpha_mix =  0.700 |ddv_scf|^2 =  2.799E-14

      iter #   6 total cpu time :    15.0 secs   av.it.:   7.7
      thresh= 1.673E-08 alpha_mix =  0.700 |ddv_scf|^2 =  1.406E-16

      iter #   7 total cpu time :    15.5 secs   av.it.:   7.0
      thresh= 1.186E-09 alpha_mix =  0.700 |ddv_scf|^2 =  1.253E-17

      iter #   8 total cpu time :    16.1 secs   av.it.:   7.4
      thresh= 3.540E-10 alpha_mix =  0.700 |ddv_scf|^2 =  5.459E-20

     End of self-consistent calculation

     Convergence has been achieved 


     Representation #  5 mode #   7

     Self-consistent Calculation

      iter #   1 total cpu time :    16.4 secs   av.it.:   4.5
      thresh= 1.000E-02 alpha_mix =  0.700 |ddv_scf|^2 =  6.746E-06

      iter #   2 total cpu time :    16.7 secs   av.it.:   7.3
      thresh= 2.597E-04 alpha_mix =  0.700 |ddv_scf|^2 =  3.797E-07

      iter #   3 total cpu time :    17.0 secs   av.it.:   7.3
      thresh= 6.162E-05 alpha_mix =  0.700 |ddv_scf|^2 =  3.867E-09

      iter #   4 total cpu time :    17.3 secs   av.it.:   6.7
      thresh= 6.219E-06 alpha_mix =  0.700 |ddv_scf|^2 =  2.118E-11

      iter #   5 total cpu time :    17.6 secs   av.it.:   7.3
      thresh= 4.602E-07 alpha_mix =  0.700 |ddv_scf|^2 =  6.955E-13

      iter #   6 total cpu time :    17.9 secs   av.it.:   6.3
      thresh= 8.340E-08 alpha_mix =  0.700 |ddv_scf|^2 =  3.477E-15

      iter #   7 total cpu time :    18.2 secs   av.it.:   5.8
      thresh= 5.896E-09 alpha_mix =  0.700 |ddv_scf|^2 =  1.714E-16

      iter #   8 total cpu time :    18.5 secs   av.it.:   6.5
      thresh= 1.309E-09 alpha_mix =  0.700 |ddv_scf|^2 =  5.906E-19

     End of self-consistent calculation

     Convergence has been achieved 


     Representation #  6 mode #   8

     Self-consistent Calculation

      iter #   1 total cpu time :    18.8 secs   av.it.:   4.8
      thresh= 1.000E-02 alpha_mix =  0.700 |ddv_scf|^2 =  6.857E-06

      iter #   2 total cpu time :    19.1 secs   av.it.:   7.2
      thresh= 2.618E-04 alpha_mix =  0.700 |ddv_scf|^2 =  3.840E-07

      iter #   3 total cpu time :    19.4 secs   av.it.:   7.3
      thresh= 6.197E-05 alpha_mix =  0.700 |ddv_scf|^2 =  3.460E-09

      iter #   4 total cpu time :    19.7 secs   av.it.:   6.7
      thresh= 5.882E-06 alpha_mix =  0.700 |ddv_scf|^2 =  2.787E-11

      iter #   5 total cpu time :    20.0 secs   av.it.:   6.8
      thresh= 5.279E-07 alpha_mix =  0.700 |ddv_scf|^2 =  1.018E-12

      iter #   6 total cpu time :    20.3 secs   av.it.:   6.2
      thresh= 1.009E-07 alpha_mix =  0.700 |ddv_scf|^2 =  2.735E-15

      iter #   7 total cpu time :    20.6 secs   av.it.:   6.3
      thresh= 5.230E-09 alpha_mix =  0.700 |ddv_scf|^2 =  1.520E-16

      iter #   8 total cpu time :    20.9 secs   av.it.:   6.7
      thresh= 1.233E-09 alpha_mix =  0.700 |ddv_scf|^2 =  1.138E-18

      iter #   9 total cpu time :    21.2 secs   av.it.:   6.8
      thresh= 1.067E-10 alpha_mix =  0.700 |ddv_scf|^2 =  1.106E-19

     End of self-consistent calculation

     Convergence has been achieved 


     Representation #  7 modes #   9 10

     Self-consistent Calculation

      iter #   1 total cpu time :    21.7 secs   av.it.:   5.0
      thresh= 1.000E-02 alpha_mix =  0.700 |ddv_scf|^2 =  2.853E-07

      iter #   2 total cpu time :    22.3 secs   av.it.:   8.9
      thresh= 5.341E-05 alpha_mix =  0.700 |ddv_scf|^2 =  5.398E-09

      iter #   3 total cpu time :    22.9 secs   av.it.:   8.2
      thresh= 7.347E-06 alpha_mix =  0.700 |ddv_scf|^2 =  3.371E-10

      iter #   4 total cpu time :    23.5 secs   av.it.:   7.3
      thresh= 1.836E-06 alpha_mix =  0.700 |ddv_scf|^2 =  8.223E-13

      iter #   5 total cpu time :    24.1 secs   av.it.:   7.7
      thresh= 9.068E-08 alpha_mix =  0.700 |ddv_scf|^2 =  3.958E-14

      iter #   6 total cpu time :    24.6 secs   av.it.:   7.7
      thresh= 1.989E-08 alpha_mix =  0.700 |ddv_scf|^2 =  1.810E-16

      iter #   7 total cpu time :    25.2 secs   av.it.:   7.0
      thresh= 1.345E-09 alpha_mix =  0.700 |ddv_scf|^2 =  1.558E-17

      iter #   8 total cpu time :    25.8 secs   av.it.:   7.4
      thresh= 3.947E-10 alpha_mix =  0.700 |ddv_scf|^2 =  6.607E-20

     End of self-consistent calculation

     Convergence has been achieved 


     Representation #  8 modes #  11 12

     Self-consistent Calculation

      iter #   1 total cpu time :    26.3 secs   av.it.:   5.0
      thresh= 1.000E-02 alpha_mix =  0.700 |ddv_scf|^2 =  2.988E-07

      iter #   2 total cpu time :    26.9 secs   av.it.:   9.0
      thresh= 5.466E-05 alpha_mix =  0.700 |ddv_scf|^2 =  6.513E-09

      iter #   3 total cpu time :    27.5 secs   av.it.:   7.9
      thresh= 8.071E-06 alpha_mix =  0.700 |ddv_scf|^2 =  3.895E-10

      iter #   4 total cpu time :    28.1 secs   av.it.:   7.1
      thresh= 1.974E-06 alpha_mix =  0.700 |ddv_scf|^2 =  5.615E-13

      iter #   5 total cpu time :    28.7 secs   av.it.:   7.9
      thresh= 7.494E-08 alpha_mix =  0.700 |ddv_scf|^2 =  2.822E-14

      iter #   6 total cpu time :    29.2 secs   av.it.:   7.6
      thresh= 1.680E-08 alpha_mix =  0.700 |ddv_scf|^2 =  1.426E-16

      iter #   7 total cpu time :    29.8 secs   av.it.:   7.0
      thresh= 1.194E-09 alpha_mix =  0.700 |ddv_scf|^2 =  1.274E-17

      iter #   8 total cpu time :    30.4 secs   av.it.:   7.2
      thresh= 3.569E-10 alpha_mix =  0.700 |ddv_scf|^2 =  4.801E-20

     End of self-consistent calculation

     Convergence has been achieved 
 
     Number of q in the star =    1
     List of q in the star:
          1   0.000000000   0.000000000   0.000000000

     Diagonalizing the dynamical matrix

     q = (    0.000000000   0.000000000   0.000000000 ) 

 **************************************************************************
     freq (    1) =      -4.326374 [THz] =    -144.312310 [cm-1]
     freq (    2) =      -4.326374 [THz] =    -144.312310 [cm-1]
     freq (    3) =      -3.953797 [THz] =    -131.884461 [cm-1]
     freq (    4) =      -3.953797 [THz] =    -131.884461 [cm-1]
     freq (    5) =       1.829854 [THz] =      61.037360 [cm-1]
     freq (    6) =       6.003109 [THz] =     200.242172 [cm-1]
     freq (    7) =      25.898314 [THz] =     863.874768 [cm-1]
     freq (    8) =      26.148259 [THz] =     872.212048 [cm-1]
     freq (    9) =      46.294732 [THz] =    1544.226041 [cm-1]
     freq (   10) =      46.294732 [THz] =    1544.226041 [cm-1]
     freq (   11) =      46.756015 [THz] =    1559.612770 [cm-1]
     freq (   12) =      46.756015 [THz] =    1559.612770 [cm-1]
 **************************************************************************

     Mode symmetry, D_6h(6/mmm) point group:

     freq (  1 -  2) =       -144.3  [cm-1]   --> E_1u            I  
     freq (  3 -  4) =       -131.9  [cm-1]   --> E_2g            R  
     freq (  5 -  5) =         61.0  [cm-1]   --> A_2u            I  
     freq (  6 -  6) =        200.2  [cm-1]   --> B_1g               
     freq (  7 -  7) =        863.9  [cm-1]   --> B_1g               
     freq (  8 -  8) =        872.2  [cm-1]   --> A_2u            I  
     freq (  9 - 10) =       1544.2  [cm-1]   --> E_2g            R  
     freq ( 11 - 12) =       1559.6  [cm-1]   --> E_1u            I  
 
     PHONON       :    29.31s CPU        30.39s WALL

     INITIALIZATION: 
     phq_setup    :      0.02s CPU      0.02s WALL (       1 calls)
     phq_init     :      0.39s CPU      0.39s WALL (       1 calls)
 
     phq_init     :      0.39s CPU      0.39s WALL (       1 calls)
     init_vloc    :      0.00s CPU      0.00s WALL (       1 calls)
     init_us_1    :      0.03s CPU      0.03s WALL (       1 calls)
     newd         :      0.00s CPU      0.00s WALL (       1 calls)
     dvanqq       :      0.14s CPU      0.14s WALL (       1 calls)
     drho         :      0.21s CPU      0.21s WALL (       1 calls)
 
     DYNAMICAL MATRIX:
     dynmat0      :      0.02s CPU      0.02s WALL (       1 calls)
     phqscf       :     28.33s CPU     29.41s WALL (       1 calls)
     dynmatrix    :      0.00s CPU      0.00s WALL (       1 calls)
 
     phqscf       :     28.33s CPU     29.41s WALL (       1 calls)
     solve_linter :     28.26s CPU     29.32s WALL (       8 calls)
     drhodv       :      0.05s CPU      0.06s WALL (       8 calls)
 
     dynmat0      :      0.02s CPU      0.02s WALL (       1 calls)
     dynmat_us    :      0.01s CPU      0.01s WALL (       1 calls)
     d2ionq       :      0.00s CPU      0.00s WALL (       1 calls)
 
     dynmat_us    :      0.01s CPU      0.01s WALL (       1 calls)
     addusdynmat  :      0.00s CPU      0.00s WALL (       1 calls)
 
     phqscf       :     28.33s CPU     29.41s WALL (       1 calls)
     solve_linter :     28.26s CPU     29.32s WALL (       8 calls)
 
     solve_linter :     28.26s CPU     29.32s WALL (       8 calls)
     dvqpsi_us    :      0.16s CPU      0.17s WALL (      72 calls)
     ortho        :      0.12s CPU      0.14s WALL (     606 calls)
     cgsolve      :      9.59s CPU      9.81s WALL (     606 calls)
     incdrhoscf   :      1.12s CPU      1.16s WALL (     606 calls)
     addusddens   :      0.69s CPU      0.70s WALL (      77 calls)
     vpsifft      :      0.82s CPU      0.87s WALL (     534 calls)
     dv_of_drho   :     11.78s CPU     12.32s WALL (     101 calls)
     mix_pot      :      0.12s CPU      0.17s WALL (      69 calls)
     psymdvscf    :      2.68s CPU      2.68s WALL (      69 calls)
     newdq        :      0.76s CPU      0.81s WALL (      69 calls)
     adddvscf     :      0.07s CPU      0.06s WALL (     534 calls)
     drhodvus     :      0.00s CPU      0.01s WALL (       8 calls)
 
     dvqpsi_us    :      0.16s CPU      0.17s WALL (      72 calls)
     dvqpsi_us_on :      0.04s CPU      0.04s WALL (      72 calls)
 
     cgsolve      :      9.59s CPU      9.81s WALL (     606 calls)
     ch_psi       :      9.33s CPU      9.55s WALL (    5522 calls)
 
     ch_psi       :      9.33s CPU      9.55s WALL (    5522 calls)
     last         :      1.08s CPU      1.15s WALL (    5522 calls)
 
     add_vuspsi   :      0.30s CPU      0.35s WALL (    5522 calls)
 
     incdrhoscf   :      1.12s CPU      1.16s WALL (     606 calls)
     addusdbec    :      0.07s CPU      0.06s WALL (     678 calls)
 
     drhodvus     :      0.00s CPU      0.01s WALL (       8 calls)
 
      General routines
     calbec       :      1.06s CPU      0.93s WALL (   12676 calls)
     fft          :      2.76s CPU      2.87s WALL (   11100 calls)
     ffts         :      0.04s CPU      0.05s WALL (     395 calls)
     fftw         :      8.10s CPU      8.06s WALL (   93066 calls)
     davcio       :      0.09s CPU      0.13s WALL (    2583 calls)
     write_rec    :      0.12s CPU      0.15s WALL (      77 calls)
 
 
     PHONON       :    29.31s CPU        30.39s WALL

 
   This run was terminated on:  16:52: 3  18Aug2016            

=------------------------------------------------------------------------------=
   JOB DONE.
=------------------------------------------------------------------------------=
