
     Program PHONON v.5.4.0 (svn rev. 12620M) starts on 28Jul2016 at 11:10:14 

     This program is part of the open-source Quantum ESPRESSO suite
     for quantum simulation of materials; please cite
         "P. Giannozzi et al., J. Phys.:Condens. Matter 21 395502 (2009);
          URL http://www.quantum-espresso.org", 
     in publications or presentations arising from this work. More details at
     http://www.quantum-espresso.org/quote
 
           HOST :    x86_64-pc-linux-gnu
           ARCH :    x86_64
             CC :    icc
            CPP :    cpp
            F90 :    ifort
            F77 :    ifort
         DFLAGS :    -D__INTEL -D__FFTW -D__MPI -D__PARA -D__HDF5
      BLAS LIBS :    -lmkl_intel_lp64  -lmkl_sequential -lmkl_core
    LAPACK LIBS :    
       FFT LIBS :    
      MASS LIBS :    

     Parallel version (MPI), running on     2 processors
     R & G space division:  proc/nbgrp/npool/nimage =       2

     Reading data from directory:
     /home/nvarini/espresso_hdf5/espresso/tempdir/alas.save

   Info: using nr1, nr2, nr3 values from input

   Info: using nr1, nr2, nr3 values from input

     IMPORTANT: XC functional enforced from input :
     Exchange-correlation      =  SLA  PZ   NOGX NOGC ( 1  1  0  0 0 0)
     Any further DFT definition will be discarded
     Please, verify this is what you really want

 
     Parallelization info
     --------------------
     sticks:   dense  smooth     PW     G-vecs:    dense   smooth      PW
     Min         120     120     42                 1221     1221     229
     Max         121     121     43                 1224     1224     230
     Sum         241     241     85                 2445     2445     459
 


     Dynamical matrices for ( 4, 4, 4)  uniform grid of q-points
     (   8q-points):
       N         xq(1)         xq(2)         xq(3) 
       1   0.000000000   0.000000000   0.000000000
       2  -0.250000000   0.250000000  -0.250000000
       3   0.500000000  -0.500000000   0.500000000
       4   0.000000000   0.500000000   0.000000000
       5   0.750000000  -0.250000000   0.750000000
       6   0.500000000   0.000000000   0.500000000
       7   0.000000000  -1.000000000   0.000000000
       8  -0.500000000  -1.000000000   0.000000000

     Calculation of q =    0.0000000   0.0000000   0.0000000

                                                                                

     bravais-lattice index     =            2
     lattice parameter (alat)  =      10.5000  a.u.
     unit-cell volume          =     289.4062 (a.u.)^3
     number of atoms/cell      =            2
     number of atomic types    =            2
     kinetic-energy cut-off    =      16.0000  Ry
     charge density cut-off    =      64.0000  Ry
     convergence threshold     =      1.0E-12
     beta                      =       0.7000
     number of iterations used =            4
     Exchange-correlation      =  SLA  PZ   NOGX NOGC ( 1  1  0  0 0 0)


     celldm(1)=   10.50000  celldm(2)=    0.00000  celldm(3)=    0.00000
     celldm(4)=    0.00000  celldm(5)=    0.00000  celldm(6)=    0.00000

     crystal axes: (cart. coord. in units of alat)
               a(1) = ( -0.5000  0.0000  0.5000 )  
               a(2) = (  0.0000  0.5000  0.5000 )  
               a(3) = ( -0.5000  0.5000  0.0000 )  

     reciprocal axes: (cart. coord. in units 2 pi/alat)
               b(1) = ( -1.0000 -1.0000  1.0000 )  
               b(2) = (  1.0000  1.0000  1.0000 )  
               b(3) = ( -1.0000  1.0000 -1.0000 )  


     Atoms inside the unit cell: 

     Cartesian axes

     site n.  atom      mass           positions (alat units)
        1     Al  26.9800   tau(    1) = (    0.00000    0.00000    0.00000  )
        2     As  74.9200   tau(    2) = (    0.25000    0.25000    0.25000  )

     Computing dynamical matrix for 
                    q = (   0.0000000   0.0000000   0.0000000 )
 
     25 Sym.Ops. (with q -> -q+G )


     G cutoff =  178.7306  (   1224 G-vectors)     FFT grid: ( 20, 20, 20)
     number of k points=     2

     PseudoPot. # 1 for Al read from file:
     /home/nvarini/espresso_hdf5/espresso/pseudo/Al.pz-vbc.UPF
     MD5 check sum: 614279c88ff8d45c90147292d03ed420
     Pseudo is Norm-conserving, Zval =  3.0
     Generated by new atomic code, or converted to UPF format
     Using radial grid of  171 points,  2 beta functions with: 
                l(1) =   0
                l(2) =   1

     PseudoPot. # 2 for As read from file:
     /home/nvarini/espresso_hdf5/espresso/pseudo/As.pz-bhs.UPF
     MD5 check sum: 451cd3365afcfc94d28b1934951c34a8
     Pseudo is Norm-conserving, Zval =  5.0
     Generated by new atomic code, or converted to UPF format
     Using radial grid of  525 points,  2 beta functions with: 
                l(1) =   0
                l(2) =   1

     Mode symmetry, T_d (-43m)  point group:


     Electric field:
     Dielectric constant
     Born effective charges in two ways 


     Atomic displacements:
     There are   2 irreducible representations

     Representation     1      3 modes -T_2  G_15 P_4  To be done

     Representation     2      3 modes -T_2  G_15 P_4  To be done



     Alpha used in Ewald sum =   0.7000
     PHONON       :     0.43s CPU         0.44s WALL


     Electric Fields Calculation

      iter #   1 total cpu time :     0.5 secs   av.it.:   6.0
      thresh= 1.000E-02 alpha_mix =  0.700 |ddv_scf|^2 =  1.326E-06

      iter #   2 total cpu time :     0.6 secs   av.it.:   9.3
      thresh= 1.151E-04 alpha_mix =  0.700 |ddv_scf|^2 =  6.508E-08

      iter #   3 total cpu time :     0.7 secs   av.it.:   9.5
      thresh= 2.551E-05 alpha_mix =  0.700 |ddv_scf|^2 =  6.401E-10

      iter #   4 total cpu time :     0.7 secs   av.it.:   9.8
      thresh= 2.530E-06 alpha_mix =  0.700 |ddv_scf|^2 =  3.108E-12

      iter #   5 total cpu time :     0.8 secs   av.it.:   9.2
      thresh= 1.763E-07 alpha_mix =  0.700 |ddv_scf|^2 =  1.542E-14

     End of electric fields calculation

          Dielectric constant in cartesian axis 

          (      13.744199422      -0.000000000       0.000000000 )
          (       0.000000000      13.744199422       0.000000000 )
          (      -0.000000000       0.000000000      13.744199422 )

          Effective charges (d Force / dE) in cartesian axis

           atom      1   Al 
      Ex  (        1.88265        0.00000       -0.00000 )
      Ey  (        0.00000        1.88265       -0.00000 )
      Ez  (        0.00000        0.00000        1.88265 )
           atom      2   As 
      Ex  (       -3.23374       -0.00000       -0.00000 )
      Ey  (       -0.00000       -3.23374       -0.00000 )
      Ez  (       -0.00000        0.00000       -3.23374 )


     Representation #  1 modes #   1  2  3

     Self-consistent Calculation

      iter #   1 total cpu time :     0.8 secs   av.it.:   6.0
      thresh= 1.000E-02 alpha_mix =  0.700 |ddv_scf|^2 =  4.662E-07

      iter #   2 total cpu time :     0.9 secs   av.it.:  10.2
      thresh= 6.828E-05 alpha_mix =  0.700 |ddv_scf|^2 =  2.270E-08

      iter #   3 total cpu time :     1.0 secs   av.it.:   9.8
      thresh= 1.507E-05 alpha_mix =  0.700 |ddv_scf|^2 =  3.782E-11

      iter #   4 total cpu time :     1.0 secs   av.it.:   9.7
      thresh= 6.150E-07 alpha_mix =  0.700 |ddv_scf|^2 =  7.212E-13

     End of self-consistent calculation

     Convergence has been achieved 


     Representation #  2 modes #   4  5  6

     Self-consistent Calculation

      iter #   1 total cpu time :     1.1 secs   av.it.:   5.0
      thresh= 1.000E-02 alpha_mix =  0.700 |ddv_scf|^2 =  2.914E-08

      iter #   2 total cpu time :     1.2 secs   av.it.:  10.2
      thresh= 1.707E-05 alpha_mix =  0.700 |ddv_scf|^2 =  3.255E-10

      iter #   3 total cpu time :     1.2 secs   av.it.:   9.5
      thresh= 1.804E-06 alpha_mix =  0.700 |ddv_scf|^2 =  3.011E-11

      iter #   4 total cpu time :     1.3 secs   av.it.:   9.5
      thresh= 5.487E-07 alpha_mix =  0.700 |ddv_scf|^2 =  1.286E-12

      iter #   5 total cpu time :     1.3 secs   av.it.:   9.5
      thresh= 1.134E-07 alpha_mix =  0.700 |ddv_scf|^2 =  4.666E-16

     End of self-consistent calculation

     Convergence has been achieved 
 
     Number of q in the star =    1
     List of q in the star:
          1   0.000000000   0.000000000   0.000000000

          Dielectric constant in cartesian axis 

          (      13.744199422      -0.000000000       0.000000000 )
          (       0.000000000      13.744199422       0.000000000 )
          (      -0.000000000       0.000000000      13.744199422 )

          Effective charges (d Force / dE) in cartesian axis

           atom      1   Al 
      Ex  (        1.88265        0.00000       -0.00000 )
      Ey  (        0.00000        1.88265       -0.00000 )
      Ez  (        0.00000        0.00000        1.88265 )
           atom      2   As 
      Ex  (       -3.23374       -0.00000       -0.00000 )
      Ey  (       -0.00000       -3.23374       -0.00000 )
      Ez  (       -0.00000        0.00000       -3.23374 )

          Effective charges (d P / du) in cartesian axis 

           atom      1   Al 
      Px  (        1.88284       -0.00000        0.00000 )
      Py  (        0.00000        1.88284        0.00000 )
      Pz  (        0.00000       -0.00000        1.88284 )
           atom      2   As 
      Px  (       -3.23835        0.00000        0.00000 )
      Py  (        0.00000       -3.23835        0.00000 )
      Pz  (        0.00000       -0.00000       -3.23835 )

     Diagonalizing the dynamical matrix

     q = (    0.000000000   0.000000000   0.000000000 ) 

 **************************************************************************
     freq (    1) =       0.169589 [THz] =       5.656886 [cm-1]
     freq (    2) =       0.169589 [THz] =       5.656886 [cm-1]
     freq (    3) =       0.169589 [THz] =       5.656886 [cm-1]
     freq (    4) =      11.258814 [THz] =     375.553598 [cm-1]
     freq (    5) =      11.258814 [THz] =     375.553598 [cm-1]
     freq (    6) =      11.258814 [THz] =     375.553598 [cm-1]
 **************************************************************************

     Mode symmetry, T_d (-43m)  point group:

     freq (  1 -  3) =          5.7  [cm-1]   --> T_2  G_15 P_4   I+R
     freq (  4 -  6) =        375.6  [cm-1]   --> T_2  G_15 P_4   I+R

     Calculation of q =   -0.2500000   0.2500000  -0.2500000
 
     Parallelization info
     --------------------
     sticks:   dense  smooth     PW     G-vecs:    dense   smooth      PW
     Min         120     120     42                 1221     1221     264
     Max         121     121     43                 1224     1224     267
     Sum         241     241     85                 2445     2445     531
 


     bravais-lattice index     =            2
     lattice parameter (alat)  =      10.5000  a.u.
     unit-cell volume          =     289.4062 (a.u.)^3
     number of atoms/cell      =            2
     number of atomic types    =            2
     number of electrons       =         8.00
     number of Kohn-Sham states=            4
     kinetic-energy cutoff     =      16.0000  Ry
     charge density cutoff     =      64.0000  Ry
     Exchange-correlation      =  SLA  PZ   NOGX NOGC ( 1  1  0  0 0 0)

     celldm(1)=  10.500000  celldm(2)=   0.000000  celldm(3)=   0.000000
     celldm(4)=   0.000000  celldm(5)=   0.000000  celldm(6)=   0.000000

     crystal axes: (cart. coord. in units of alat)
               a(1) = (  -0.500000   0.000000   0.500000 )  
               a(2) = (   0.000000   0.500000   0.500000 )  
               a(3) = (  -0.500000   0.500000   0.000000 )  

     reciprocal axes: (cart. coord. in units 2 pi/alat)
               b(1) = ( -1.000000 -1.000000  1.000000 )  
               b(2) = (  1.000000  1.000000  1.000000 )  
               b(3) = ( -1.000000  1.000000 -1.000000 )  


     PseudoPot. # 1 for Al read from file:
     /home/nvarini/espresso_hdf5/espresso/pseudo/Al.pz-vbc.UPF
     MD5 check sum: 614279c88ff8d45c90147292d03ed420
     Pseudo is Norm-conserving, Zval =  3.0
     Generated by new atomic code, or converted to UPF format
     Using radial grid of  171 points,  2 beta functions with: 
                l(1) =   0
                l(2) =   1

     PseudoPot. # 2 for As read from file:
     /home/nvarini/espresso_hdf5/espresso/pseudo/As.pz-bhs.UPF
     MD5 check sum: 451cd3365afcfc94d28b1934951c34a8
     Pseudo is Norm-conserving, Zval =  5.0
     Generated by new atomic code, or converted to UPF format
     Using radial grid of  525 points,  2 beta functions with: 
                l(1) =   0
                l(2) =   1

     atomic species   valence    mass     pseudopotential
        Al             3.00    26.98000     Al( 1.00)
        As             5.00    74.92000     As( 1.00)

     24 Sym. Ops. (no inversion) found



   Cartesian axes

     site n.     atom                  positions (alat units)
         1           Al  tau(   1) = (   0.0000000   0.0000000   0.0000000  )
         2           As  tau(   2) = (   0.2500000   0.2500000   0.2500000  )

     number of k points=    20
                       cart. coord. in units 2pi/alat
        k(    1) = (   0.2500000   0.2500000   0.2500000), wk =   0.1875000
        k(    2) = (   0.0000000   0.5000000   0.0000000), wk =   0.0000000
        k(    3) = (   0.2500000   0.2500000   0.7500000), wk =   0.3750000
        k(    4) = (   0.0000000   0.5000000   0.5000000), wk =   0.0000000
        k(    5) = (  -0.2500000   0.2500000  -0.2500000), wk =   0.0625000
        k(    6) = (  -0.5000000   0.5000000  -0.5000000), wk =   0.0000000
        k(    7) = (  -0.2500000  -0.2500000  -0.2500000), wk =   0.1875000
        k(    8) = (  -0.5000000   0.0000000  -0.5000000), wk =   0.0000000
        k(    9) = (   0.2500000  -0.2500000   0.2500000), wk =   0.0625000
        k(   10) = (   0.0000000   0.0000000   0.0000000), wk =   0.0000000
        k(   11) = (  -0.7500000  -0.2500000   0.2500000), wk =   0.1875000
        k(   12) = (  -1.0000000   0.0000000   0.0000000), wk =   0.0000000
        k(   13) = (  -0.7500000   0.2500000  -0.2500000), wk =   0.1875000
        k(   14) = (  -1.0000000   0.5000000  -0.5000000), wk =   0.0000000
        k(   15) = (  -0.2500000  -0.2500000  -0.7500000), wk =   0.3750000
        k(   16) = (  -0.5000000   0.0000000  -1.0000000), wk =   0.0000000
        k(   17) = (   0.2500000  -0.2500000   0.7500000), wk =   0.1875000
        k(   18) = (   0.0000000   0.0000000   0.5000000), wk =   0.0000000
        k(   19) = (  -0.2500000   0.2500000   0.7500000), wk =   0.1875000
        k(   20) = (  -0.5000000   0.5000000   0.5000000), wk =   0.0000000

     Dense  grid:     2445 G-vectors     FFT dimensions: (  20,  20,  20)

     Largest allocated arrays     est. size (Mb)     dimensions
        Kohn-Sham Wavefunctions         0.01 Mb     (     165,    4)
        NL pseudopotentials             0.02 Mb     (     165,    8)
        Each V/rho on FFT grid          0.06 Mb     (    4000)
        Each G-vector array             0.01 Mb     (    1224)
        G-vector shells                 0.00 Mb     (      61)
     Largest temporary arrays     est. size (Mb)     dimensions
        Auxiliary wavefunctions         0.04 Mb     (     165,   16)
        Each subspace H/S matrix        0.00 Mb     (      16,   16)
        Each <psi_i|beta_j> matrix      0.00 Mb     (       8,    4)

     The potential is recalculated from file :
     /home/nvarini/espresso_hdf5/espresso/tempdir/_ph0/alas.save/charge-density.hdf5

     Starting wfc are    8 atomic wfcs

     Band Structure Calculation
     Davidson diagonalization with overlap

     ethr =  1.25E-10,  avg # of iterations = 11.0

     total cpu time spent up to now is        0.2 secs

     End of band structure calculation

          k = 0.2500 0.2500 0.2500 (   311 PWs)   bands (ev):

    -6.3575   1.7035   4.6970   4.6970

          k = 0.0000 0.5000 0.0000 (   311 PWs)   bands (ev):

    -6.1430   1.9396   3.7847   3.7847

          k = 0.2500 0.2500 0.7500 (   311 PWs)   bands (ev):

    -5.1819  -0.0415   2.3125   3.5086

          k = 0.0000 0.5000 0.5000 (   315 PWs)   bands (ev):

    -5.5287   0.5005   2.1485   4.2663

          k =-0.2500 0.2500-0.2500 (   311 PWs)   bands (ev):

    -6.3575   1.7035   4.6970   4.6970

          k =-0.5000 0.5000-0.5000 (   302 PWs)   bands (ev):

    -5.4218  -0.6403   4.3483   4.3483

          k =-0.2500-0.2500-0.2500 (   311 PWs)   bands (ev):

    -6.3575   1.7035   4.6970   4.6970

          k =-0.5000 0.0000-0.5000 (   315 PWs)   bands (ev):

    -5.5287   0.5005   2.1485   4.2663

          k = 0.2500-0.2500 0.2500 (   311 PWs)   bands (ev):

    -6.3575   1.7035   4.6970   4.6970

          k = 0.0000 0.0000 0.0000 (   331 PWs)   bands (ev):

    -6.9797   5.1761   5.1761   5.1761

          k =-0.7500-0.2500 0.2500 (   311 PWs)   bands (ev):

    -5.1819  -0.0415   2.3125   3.5086

          k =-1.0000 0.0000 0.0000 (   302 PWs)   bands (ev):

    -4.8216  -0.4470   2.9274   2.9274

          k =-0.7500 0.2500-0.2500 (   311 PWs)   bands (ev):

    -5.1819  -0.0415   2.3125   3.5086

          k =-1.0000 0.5000-0.5000 (   315 PWs)   bands (ev):

    -5.5287   0.5005   2.1485   4.2663

          k =-0.2500-0.2500-0.7500 (   311 PWs)   bands (ev):

    -5.1819  -0.0415   2.3125   3.5086

          k =-0.5000 0.0000-1.0000 (   308 PWs)   bands (ev):

    -4.7852  -0.0517   1.7949   2.1910

          k = 0.2500-0.2500 0.7500 (   311 PWs)   bands (ev):

    -5.1819  -0.0415   2.3125   3.5086

          k = 0.0000 0.0000 0.5000 (   311 PWs)   bands (ev):

    -6.1430   1.9396   3.7847   3.7847

          k =-0.2500 0.2500 0.7500 (   311 PWs)   bands (ev):

    -5.1819  -0.0415   2.3125   3.5086

          k =-0.5000 0.5000 0.5000 (   302 PWs)   bands (ev):

    -5.4218  -0.6403   4.3483   4.3483

     highest occupied level (ev):     5.1761

     Writing output data file alas.save

                                                                                

     bravais-lattice index     =            2
     lattice parameter (alat)  =      10.5000  a.u.
     unit-cell volume          =     289.4062 (a.u.)^3
     number of atoms/cell      =            2
     number of atomic types    =            2
     kinetic-energy cut-off    =      16.0000  Ry
     charge density cut-off    =      64.0000  Ry
     convergence threshold     =      1.0E-12
     beta                      =       0.7000
     number of iterations used =            4
     Exchange-correlation      =  SLA  PZ   NOGX NOGC ( 1  1  0  0 0 0)


     celldm(1)=   10.50000  celldm(2)=    0.00000  celldm(3)=    0.00000
     celldm(4)=    0.00000  celldm(5)=    0.00000  celldm(6)=    0.00000

     crystal axes: (cart. coord. in units of alat)
               a(1) = ( -0.5000  0.0000  0.5000 )  
               a(2) = (  0.0000  0.5000  0.5000 )  
               a(3) = ( -0.5000  0.5000  0.0000 )  

     reciprocal axes: (cart. coord. in units 2 pi/alat)
               b(1) = ( -1.0000 -1.0000  1.0000 )  
               b(2) = (  1.0000  1.0000  1.0000 )  
               b(3) = ( -1.0000  1.0000 -1.0000 )  


     Atoms inside the unit cell: 

     Cartesian axes

     site n.  atom      mass           positions (alat units)
        1     Al  26.9800   tau(    1) = (    0.00000    0.00000    0.00000  )
        2     As  74.9200   tau(    2) = (    0.25000    0.25000    0.25000  )

     Computing dynamical matrix for 
                    q = (  -0.2500000   0.2500000  -0.2500000 )
 
      6 Sym.Ops. (no q -> -q+G )


     G cutoff =  178.7306  (   1224 G-vectors)     FFT grid: ( 20, 20, 20)
     number of k points=    20

     PseudoPot. # 1 for Al read from file:
     /home/nvarini/espresso_hdf5/espresso/pseudo/Al.pz-vbc.UPF
     MD5 check sum: 614279c88ff8d45c90147292d03ed420
     Pseudo is Norm-conserving, Zval =  3.0
     Generated by new atomic code, or converted to UPF format
     Using radial grid of  171 points,  2 beta functions with: 
                l(1) =   0
                l(2) =   1

     PseudoPot. # 2 for As read from file:
     /home/nvarini/espresso_hdf5/espresso/pseudo/As.pz-bhs.UPF
     MD5 check sum: 451cd3365afcfc94d28b1934951c34a8
     Pseudo is Norm-conserving, Zval =  5.0
     Generated by new atomic code, or converted to UPF format
     Using radial grid of  525 points,  2 beta functions with: 
                l(1) =   0
                l(2) =   1

     Mode symmetry, C_3v (3m)   point group:


     Atomic displacements:
     There are   4 irreducible representations

     Representation     1      1 modes -A_1  L_1  To be done

     Representation     2      1 modes -A_1  L_1  To be done

     Representation     3      2 modes -E    L_3  To be done

     Representation     4      2 modes -E    L_3  To be done



     Alpha used in Ewald sum =   0.7000
     PHONON       :     1.59s CPU         1.65s WALL



     Representation #  1 mode #   1

     Self-consistent Calculation

      iter #   1 total cpu time :     1.7 secs   av.it.:   6.2
      thresh= 1.000E-02 alpha_mix =  0.700 |ddv_scf|^2 =  3.084E-03

      iter #   2 total cpu time :     1.8 secs   av.it.:   7.6
      thresh= 5.553E-03 alpha_mix =  0.700 |ddv_scf|^2 =  2.965E-02

      iter #   3 total cpu time :     1.8 secs   av.it.:   6.8
      thresh= 1.000E-02 alpha_mix =  0.700 |ddv_scf|^2 =  6.313E-06

      iter #   4 total cpu time :     1.9 secs   av.it.:   7.2
      thresh= 2.513E-04 alpha_mix =  0.700 |ddv_scf|^2 =  1.355E-07

      iter #   5 total cpu time :     2.0 secs   av.it.:   7.6
      thresh= 3.680E-05 alpha_mix =  0.700 |ddv_scf|^2 =  2.472E-09

      iter #   6 total cpu time :     2.0 secs   av.it.:   7.0
      thresh= 4.972E-06 alpha_mix =  0.700 |ddv_scf|^2 =  5.631E-10

      iter #   7 total cpu time :     2.1 secs   av.it.:   7.1
      thresh= 2.373E-06 alpha_mix =  0.700 |ddv_scf|^2 =  3.734E-11

      iter #   8 total cpu time :     2.2 secs   av.it.:   7.2
      thresh= 6.111E-07 alpha_mix =  0.700 |ddv_scf|^2 =  2.459E-13

     End of self-consistent calculation

     Convergence has been achieved 


     Representation #  2 mode #   2

     Self-consistent Calculation

      iter #   1 total cpu time :     2.2 secs   av.it.:   5.6
      thresh= 1.000E-02 alpha_mix =  0.700 |ddv_scf|^2 =  6.514E-04

      iter #   2 total cpu time :     2.3 secs   av.it.:   7.6
      thresh= 2.552E-03 alpha_mix =  0.700 |ddv_scf|^2 =  5.928E-03

      iter #   3 total cpu time :     2.3 secs   av.it.:   6.2
      thresh= 7.699E-03 alpha_mix =  0.700 |ddv_scf|^2 =  2.189E-07

      iter #   4 total cpu time :     2.4 secs   av.it.:   8.2
      thresh= 4.679E-05 alpha_mix =  0.700 |ddv_scf|^2 =  7.894E-09

      iter #   5 total cpu time :     2.5 secs   av.it.:   8.1
      thresh= 8.885E-06 alpha_mix =  0.700 |ddv_scf|^2 =  1.555E-09

      iter #   6 total cpu time :     2.5 secs   av.it.:   7.0
      thresh= 3.944E-06 alpha_mix =  0.700 |ddv_scf|^2 =  4.260E-10

      iter #   7 total cpu time :     2.6 secs   av.it.:   7.4
      thresh= 2.064E-06 alpha_mix =  0.700 |ddv_scf|^2 =  1.780E-11

      iter #   8 total cpu time :     2.7 secs   av.it.:   7.5
      thresh= 4.219E-07 alpha_mix =  0.700 |ddv_scf|^2 =  4.957E-13

     End of self-consistent calculation

     Convergence has been achieved 


     Representation #  3 modes #   3  4

     Self-consistent Calculation

      iter #   1 total cpu time :     2.8 secs   av.it.:   5.8
      thresh= 1.000E-02 alpha_mix =  0.700 |ddv_scf|^2 =  1.311E-06

      iter #   2 total cpu time :     2.9 secs   av.it.:   9.1
      thresh= 1.145E-04 alpha_mix =  0.700 |ddv_scf|^2 =  9.089E-08

      iter #   3 total cpu time :     3.0 secs   av.it.:   9.0
      thresh= 3.015E-05 alpha_mix =  0.700 |ddv_scf|^2 =  8.910E-11

      iter #   4 total cpu time :     3.2 secs   av.it.:   9.1
      thresh= 9.439E-07 alpha_mix =  0.700 |ddv_scf|^2 =  1.647E-12

      iter #   5 total cpu time :     3.3 secs   av.it.:   8.8
      thresh= 1.283E-07 alpha_mix =  0.700 |ddv_scf|^2 =  1.865E-14

     End of self-consistent calculation

     Convergence has been achieved 


     Representation #  4 modes #   5  6

     Self-consistent Calculation

      iter #   1 total cpu time :     3.4 secs   av.it.:   5.1
      thresh= 1.000E-02 alpha_mix =  0.700 |ddv_scf|^2 =  1.107E-07

      iter #   2 total cpu time :     3.6 secs   av.it.:   9.5
      thresh= 3.327E-05 alpha_mix =  0.700 |ddv_scf|^2 =  4.471E-09

      iter #   3 total cpu time :     3.7 secs   av.it.:   9.2
      thresh= 6.686E-06 alpha_mix =  0.700 |ddv_scf|^2 =  1.322E-10

      iter #   4 total cpu time :     3.8 secs   av.it.:   9.1
      thresh= 1.150E-06 alpha_mix =  0.700 |ddv_scf|^2 =  6.935E-12

      iter #   5 total cpu time :     4.0 secs   av.it.:   8.9
      thresh= 2.633E-07 alpha_mix =  0.700 |ddv_scf|^2 =  1.163E-15

     End of self-consistent calculation

     Convergence has been achieved 
 
     Number of q in the star =    4
     List of q in the star:
          1  -0.250000000   0.250000000  -0.250000000
          2   0.250000000  -0.250000000  -0.250000000
          3  -0.250000000  -0.250000000   0.250000000
          4   0.250000000   0.250000000   0.250000000
     In addition there is the -q list: 
          1   0.250000000  -0.250000000   0.250000000
          2  -0.250000000   0.250000000   0.250000000
          3   0.250000000   0.250000000  -0.250000000
          4  -0.250000000  -0.250000000  -0.250000000

     Diagonalizing the dynamical matrix

     q = (   -0.250000000   0.250000000  -0.250000000 ) 

 **************************************************************************
     freq (    1) =       1.761287 [THz] =      58.750219 [cm-1]
     freq (    2) =       1.761287 [THz] =      58.750219 [cm-1]
     freq (    3) =       4.534092 [THz] =     151.241026 [cm-1]
     freq (    4) =      11.004846 [THz] =     367.082157 [cm-1]
     freq (    5) =      11.004846 [THz] =     367.082157 [cm-1]
     freq (    6) =      12.136526 [THz] =     404.830923 [cm-1]
 **************************************************************************

     Mode symmetry, C_3v (3m)   point group:

     freq (  1 -  2) =         58.8  [cm-1]   --> E    L_3           
     freq (  3 -  3) =        151.2  [cm-1]   --> A_1  L_1           
     freq (  4 -  5) =        367.1  [cm-1]   --> E    L_3           
     freq (  6 -  6) =        404.8  [cm-1]   --> A_1  L_1           

     Calculation of q =    0.5000000  -0.5000000   0.5000000
 
     Parallelization info
     --------------------
     sticks:   dense  smooth     PW     G-vecs:    dense   smooth      PW
     Min         120     120     42                 1221     1221     267
     Max         121     121     43                 1224     1224     270
     Sum         241     241     85                 2445     2445     537
 


     bravais-lattice index     =            2
     lattice parameter (alat)  =      10.5000  a.u.
     unit-cell volume          =     289.4062 (a.u.)^3
     number of atoms/cell      =            2
     number of atomic types    =            2
     number of electrons       =         8.00
     number of Kohn-Sham states=            4
     kinetic-energy cutoff     =      16.0000  Ry
     charge density cutoff     =      64.0000  Ry
     Exchange-correlation      =  SLA  PZ   NOGX NOGC ( 1  1  0  0 0 0)

     celldm(1)=  10.500000  celldm(2)=   0.000000  celldm(3)=   0.000000
     celldm(4)=   0.000000  celldm(5)=   0.000000  celldm(6)=   0.000000

     crystal axes: (cart. coord. in units of alat)
               a(1) = (  -0.500000   0.000000   0.500000 )  
               a(2) = (   0.000000   0.500000   0.500000 )  
               a(3) = (  -0.500000   0.500000   0.000000 )  

     reciprocal axes: (cart. coord. in units 2 pi/alat)
               b(1) = ( -1.000000 -1.000000  1.000000 )  
               b(2) = (  1.000000  1.000000  1.000000 )  
               b(3) = ( -1.000000  1.000000 -1.000000 )  


     PseudoPot. # 1 for Al read from file:
     /home/nvarini/espresso_hdf5/espresso/pseudo/Al.pz-vbc.UPF
     MD5 check sum: 614279c88ff8d45c90147292d03ed420
     Pseudo is Norm-conserving, Zval =  3.0
     Generated by new atomic code, or converted to UPF format
     Using radial grid of  171 points,  2 beta functions with: 
                l(1) =   0
                l(2) =   1

     PseudoPot. # 2 for As read from file:
     /home/nvarini/espresso_hdf5/espresso/pseudo/As.pz-bhs.UPF
     MD5 check sum: 451cd3365afcfc94d28b1934951c34a8
     Pseudo is Norm-conserving, Zval =  5.0
     Generated by new atomic code, or converted to UPF format
     Using radial grid of  525 points,  2 beta functions with: 
                l(1) =   0
                l(2) =   1

     atomic species   valence    mass     pseudopotential
        Al             3.00    26.98000     Al( 1.00)
        As             5.00    74.92000     As( 1.00)

     24 Sym. Ops. (no inversion) found



   Cartesian axes

     site n.     atom                  positions (alat units)
         1           Al  tau(   1) = (   0.0000000   0.0000000   0.0000000  )
         2           As  tau(   2) = (   0.2500000   0.2500000   0.2500000  )

     number of k points=    10
                       cart. coord. in units 2pi/alat
        k(    1) = (   0.2500000   0.2500000   0.2500000), wk =   0.3750000
        k(    2) = (   0.7500000  -0.2500000   0.7500000), wk =   0.0000000
        k(    3) = (   0.2500000   0.2500000   0.7500000), wk =   0.7500000
        k(    4) = (   0.7500000  -0.2500000   1.2500000), wk =   0.0000000
        k(    5) = (  -0.2500000   0.2500000  -0.2500000), wk =   0.1250000
        k(    6) = (   0.2500000  -0.2500000   0.2500000), wk =   0.0000000
        k(    7) = (  -0.7500000  -0.2500000   0.2500000), wk =   0.3750000
        k(    8) = (  -0.2500000  -0.7500000   0.7500000), wk =   0.0000000
        k(    9) = (  -0.7500000   0.2500000  -0.2500000), wk =   0.3750000
        k(   10) = (  -0.2500000  -0.2500000   0.2500000), wk =   0.0000000

     Dense  grid:     2445 G-vectors     FFT dimensions: (  20,  20,  20)

     Largest allocated arrays     est. size (Mb)     dimensions
        Kohn-Sham Wavefunctions         0.01 Mb     (     158,    4)
        NL pseudopotentials             0.02 Mb     (     158,    8)
        Each V/rho on FFT grid          0.06 Mb     (    4000)
        Each G-vector array             0.01 Mb     (    1224)
        G-vector shells                 0.00 Mb     (      61)
     Largest temporary arrays     est. size (Mb)     dimensions
        Auxiliary wavefunctions         0.04 Mb     (     158,   16)
        Each subspace H/S matrix        0.00 Mb     (      16,   16)
        Each <psi_i|beta_j> matrix      0.00 Mb     (       8,    4)

     The potential is recalculated from file :
     /home/nvarini/espresso_hdf5/espresso/tempdir/_ph0/alas.save/charge-density.hdf5

     Starting wfc are    8 atomic wfcs

     Band Structure Calculation
     Davidson diagonalization with overlap

     ethr =  1.25E-10,  avg # of iterations = 11.6

     total cpu time spent up to now is        0.4 secs

     End of band structure calculation

          k = 0.2500 0.2500 0.2500 (   311 PWs)   bands (ev):

    -6.3575   1.7035   4.6970   4.6970

          k = 0.7500-0.2500 0.7500 (   311 PWs)   bands (ev):

    -5.1819  -0.0415   2.3125   3.5086

          k = 0.2500 0.2500 0.7500 (   311 PWs)   bands (ev):

    -5.1819  -0.0415   2.3125   3.5086

          k = 0.7500-0.2500 1.2500 (   311 PWs)   bands (ev):

    -5.1819  -0.0415   2.3125   3.5086

          k =-0.2500 0.2500-0.2500 (   311 PWs)   bands (ev):

    -6.3575   1.7035   4.6970   4.6970

          k = 0.2500-0.2500 0.2500 (   311 PWs)   bands (ev):

    -6.3575   1.7035   4.6970   4.6970

          k =-0.7500-0.2500 0.2500 (   311 PWs)   bands (ev):

    -5.1819  -0.0415   2.3125   3.5086

          k =-0.2500-0.7500 0.7500 (   311 PWs)   bands (ev):

    -5.1819  -0.0415   2.3125   3.5086

          k =-0.7500 0.2500-0.2500 (   311 PWs)   bands (ev):

    -5.1819  -0.0415   2.3125   3.5086

          k =-0.2500-0.2500 0.2500 (   311 PWs)   bands (ev):

    -6.3575   1.7035   4.6970   4.6970

     highest occupied level (ev):     4.6970

     Writing output data file alas.save

                                                                                

     bravais-lattice index     =            2
     lattice parameter (alat)  =      10.5000  a.u.
     unit-cell volume          =     289.4062 (a.u.)^3
     number of atoms/cell      =            2
     number of atomic types    =            2
     kinetic-energy cut-off    =      16.0000  Ry
     charge density cut-off    =      64.0000  Ry
     convergence threshold     =      1.0E-12
     beta                      =       0.7000
     number of iterations used =            4
     Exchange-correlation      =  SLA  PZ   NOGX NOGC ( 1  1  0  0 0 0)


     celldm(1)=   10.50000  celldm(2)=    0.00000  celldm(3)=    0.00000
     celldm(4)=    0.00000  celldm(5)=    0.00000  celldm(6)=    0.00000

     crystal axes: (cart. coord. in units of alat)
               a(1) = ( -0.5000  0.0000  0.5000 )  
               a(2) = (  0.0000  0.5000  0.5000 )  
               a(3) = ( -0.5000  0.5000  0.0000 )  

     reciprocal axes: (cart. coord. in units 2 pi/alat)
               b(1) = ( -1.0000 -1.0000  1.0000 )  
               b(2) = (  1.0000  1.0000  1.0000 )  
               b(3) = ( -1.0000  1.0000 -1.0000 )  


     Atoms inside the unit cell: 

     Cartesian axes

     site n.  atom      mass           positions (alat units)
        1     Al  26.9800   tau(    1) = (    0.00000    0.00000    0.00000  )
        2     As  74.9200   tau(    2) = (    0.25000    0.25000    0.25000  )

     Computing dynamical matrix for 
                    q = (   0.5000000  -0.5000000   0.5000000 )
 
      7 Sym.Ops. (with q -> -q+G )


     G cutoff =  178.7306  (   1224 G-vectors)     FFT grid: ( 20, 20, 20)
     number of k points=    10

     PseudoPot. # 1 for Al read from file:
     /home/nvarini/espresso_hdf5/espresso/pseudo/Al.pz-vbc.UPF
     MD5 check sum: 614279c88ff8d45c90147292d03ed420
     Pseudo is Norm-conserving, Zval =  3.0
     Generated by new atomic code, or converted to UPF format
     Using radial grid of  171 points,  2 beta functions with: 
                l(1) =   0
                l(2) =   1

     PseudoPot. # 2 for As read from file:
     /home/nvarini/espresso_hdf5/espresso/pseudo/As.pz-bhs.UPF
     MD5 check sum: 451cd3365afcfc94d28b1934951c34a8
     Pseudo is Norm-conserving, Zval =  5.0
     Generated by new atomic code, or converted to UPF format
     Using radial grid of  525 points,  2 beta functions with: 
                l(1) =   0
                l(2) =   1

     Mode symmetry, C_3v (3m)   point group:


     Atomic displacements:
     There are   4 irreducible representations

     Representation     1      1 modes -A_1  L_1  To be done

     Representation     2      1 modes -A_1  L_1  To be done

     Representation     3      2 modes -E    L_3  To be done

     Representation     4      2 modes -E    L_3  To be done



     Alpha used in Ewald sum =   0.7000
     PHONON       :     3.97s CPU         4.17s WALL



     Representation #  1 mode #   1

     Self-consistent Calculation

      iter #   1 total cpu time :     4.2 secs   av.it.:   6.2
      thresh= 1.000E-02 alpha_mix =  0.700 |ddv_scf|^2 =  3.570E-04

      iter #   2 total cpu time :     4.2 secs   av.it.:   8.2
      thresh= 1.889E-03 alpha_mix =  0.700 |ddv_scf|^2 =  1.022E-03

      iter #   3 total cpu time :     4.3 secs   av.it.:   7.4
      thresh= 3.198E-03 alpha_mix =  0.700 |ddv_scf|^2 =  5.285E-08

      iter #   4 total cpu time :     4.3 secs   av.it.:   8.0
      thresh= 2.299E-05 alpha_mix =  0.700 |ddv_scf|^2 =  8.133E-09

      iter #   5 total cpu time :     4.4 secs   av.it.:   7.4
      thresh= 9.018E-06 alpha_mix =  0.700 |ddv_scf|^2 =  4.321E-11

      iter #   6 total cpu time :     4.4 secs   av.it.:   8.4
      thresh= 6.574E-07 alpha_mix =  0.700 |ddv_scf|^2 =  4.541E-12

      iter #   7 total cpu time :     4.4 secs   av.it.:   8.0
      thresh= 2.131E-07 alpha_mix =  0.700 |ddv_scf|^2 =  8.121E-15

     End of self-consistent calculation

     Convergence has been achieved 


     Representation #  2 mode #   2

     Self-consistent Calculation

      iter #   1 total cpu time :     4.5 secs   av.it.:   5.4
      thresh= 1.000E-02 alpha_mix =  0.700 |ddv_scf|^2 =  5.801E-05

      iter #   2 total cpu time :     4.5 secs   av.it.:   8.2
      thresh= 7.616E-04 alpha_mix =  0.700 |ddv_scf|^2 =  1.452E-04

      iter #   3 total cpu time :     4.5 secs   av.it.:   7.4
      thresh= 1.205E-03 alpha_mix =  0.700 |ddv_scf|^2 =  6.723E-07

      iter #   4 total cpu time :     4.6 secs   av.it.:   7.6
      thresh= 8.199E-05 alpha_mix =  0.700 |ddv_scf|^2 =  4.026E-09

      iter #   5 total cpu time :     4.6 secs   av.it.:   8.0
      thresh= 6.345E-06 alpha_mix =  0.700 |ddv_scf|^2 =  7.127E-11

      iter #   6 total cpu time :     4.6 secs   av.it.:   8.4
      thresh= 8.442E-07 alpha_mix =  0.700 |ddv_scf|^2 =  1.224E-12

      iter #   7 total cpu time :     4.7 secs   av.it.:   8.2
      thresh= 1.106E-07 alpha_mix =  0.700 |ddv_scf|^2 =  2.296E-14

     End of self-consistent calculation

     Convergence has been achieved 


     Representation #  3 modes #   3  4

     Self-consistent Calculation

      iter #   1 total cpu time :     4.8 secs   av.it.:   6.1
      thresh= 1.000E-02 alpha_mix =  0.700 |ddv_scf|^2 =  1.539E-06

      iter #   2 total cpu time :     4.9 secs   av.it.:   9.2
      thresh= 1.241E-04 alpha_mix =  0.700 |ddv_scf|^2 =  1.303E-07

      iter #   3 total cpu time :     4.9 secs   av.it.:   9.0
      thresh= 3.609E-05 alpha_mix =  0.700 |ddv_scf|^2 =  8.961E-11

      iter #   4 total cpu time :     5.0 secs   av.it.:   9.2
      thresh= 9.466E-07 alpha_mix =  0.700 |ddv_scf|^2 =  6.962E-13

     End of self-consistent calculation

     Convergence has been achieved 


     Representation #  4 modes #   5  6

     Self-consistent Calculation

      iter #   1 total cpu time :     5.1 secs   av.it.:   4.8
      thresh= 1.000E-02 alpha_mix =  0.700 |ddv_scf|^2 =  1.481E-07

      iter #   2 total cpu time :     5.1 secs   av.it.:   9.0
      thresh= 3.849E-05 alpha_mix =  0.700 |ddv_scf|^2 =  8.860E-09

      iter #   3 total cpu time :     5.2 secs   av.it.:   9.0
      thresh= 9.413E-06 alpha_mix =  0.700 |ddv_scf|^2 =  1.468E-10

      iter #   4 total cpu time :     5.3 secs   av.it.:   9.1
      thresh= 1.212E-06 alpha_mix =  0.700 |ddv_scf|^2 =  7.526E-12

      iter #   5 total cpu time :     5.3 secs   av.it.:   8.2
      thresh= 2.743E-07 alpha_mix =  0.700 |ddv_scf|^2 =  2.734E-15

     End of self-consistent calculation

     Convergence has been achieved 
 
     Number of q in the star =    4
     List of q in the star:
          1   0.500000000  -0.500000000   0.500000000
          2  -0.500000000   0.500000000   0.500000000
          3   0.500000000   0.500000000  -0.500000000
          4  -0.500000000  -0.500000000  -0.500000000

     Diagonalizing the dynamical matrix

     q = (    0.500000000  -0.500000000   0.500000000 ) 

 **************************************************************************
     freq (    1) =       2.016672 [THz] =      67.268931 [cm-1]
     freq (    2) =       2.016672 [THz] =      67.268931 [cm-1]
     freq (    3) =       6.494381 [THz] =     216.629246 [cm-1]
     freq (    4) =      10.940913 [THz] =     364.949583 [cm-1]
     freq (    5) =      10.940913 [THz] =     364.949583 [cm-1]
     freq (    6) =      11.551672 [THz] =     385.322301 [cm-1]
 **************************************************************************

     Mode symmetry, C_3v (3m)   point group:

     freq (  1 -  2) =         67.3  [cm-1]   --> E    L_3           
     freq (  3 -  3) =        216.6  [cm-1]   --> A_1  L_1           
     freq (  4 -  5) =        364.9  [cm-1]   --> E    L_3           
     freq (  6 -  6) =        385.3  [cm-1]   --> A_1  L_1           

     Calculation of q =    0.0000000   0.5000000   0.0000000
 
     Parallelization info
     --------------------
     sticks:   dense  smooth     PW     G-vecs:    dense   smooth      PW
     Min         120     120     42                 1221     1221     264
     Max         121     121     43                 1224     1224     267
     Sum         241     241     85                 2445     2445     531
 


     bravais-lattice index     =            2
     lattice parameter (alat)  =      10.5000  a.u.
     unit-cell volume          =     289.4062 (a.u.)^3
     number of atoms/cell      =            2
     number of atomic types    =            2
     number of electrons       =         8.00
     number of Kohn-Sham states=            4
     kinetic-energy cutoff     =      16.0000  Ry
     charge density cutoff     =      64.0000  Ry
     Exchange-correlation      =  SLA  PZ   NOGX NOGC ( 1  1  0  0 0 0)

     celldm(1)=  10.500000  celldm(2)=   0.000000  celldm(3)=   0.000000
     celldm(4)=   0.000000  celldm(5)=   0.000000  celldm(6)=   0.000000

     crystal axes: (cart. coord. in units of alat)
               a(1) = (  -0.500000   0.000000   0.500000 )  
               a(2) = (   0.000000   0.500000   0.500000 )  
               a(3) = (  -0.500000   0.500000   0.000000 )  

     reciprocal axes: (cart. coord. in units 2 pi/alat)
               b(1) = ( -1.000000 -1.000000  1.000000 )  
               b(2) = (  1.000000  1.000000  1.000000 )  
               b(3) = ( -1.000000  1.000000 -1.000000 )  


     PseudoPot. # 1 for Al read from file:
     /home/nvarini/espresso_hdf5/espresso/pseudo/Al.pz-vbc.UPF
     MD5 check sum: 614279c88ff8d45c90147292d03ed420
     Pseudo is Norm-conserving, Zval =  3.0
     Generated by new atomic code, or converted to UPF format
     Using radial grid of  171 points,  2 beta functions with: 
                l(1) =   0
                l(2) =   1

     PseudoPot. # 2 for As read from file:
     /home/nvarini/espresso_hdf5/espresso/pseudo/As.pz-bhs.UPF
     MD5 check sum: 451cd3365afcfc94d28b1934951c34a8
     Pseudo is Norm-conserving, Zval =  5.0
     Generated by new atomic code, or converted to UPF format
     Using radial grid of  525 points,  2 beta functions with: 
                l(1) =   0
                l(2) =   1

     atomic species   valence    mass     pseudopotential
        Al             3.00    26.98000     Al( 1.00)
        As             5.00    74.92000     As( 1.00)

     24 Sym. Ops. (no inversion) found



   Cartesian axes

     site n.     atom                  positions (alat units)
         1           Al  tau(   1) = (   0.0000000   0.0000000   0.0000000  )
         2           As  tau(   2) = (   0.2500000   0.2500000   0.2500000  )

     number of k points=    24
                       cart. coord. in units 2pi/alat
        k(    1) = (   0.2500000   0.2500000   0.2500000), wk =   0.1250000
        k(    2) = (   0.2500000   0.7500000   0.2500000), wk =   0.0000000
        k(    3) = (   0.2500000   0.2500000   0.7500000), wk =   0.2500000
        k(    4) = (   0.2500000   0.7500000   0.7500000), wk =   0.0000000
        k(    5) = (  -0.2500000  -0.2500000   0.2500000), wk =   0.1250000
        k(    6) = (  -0.2500000   0.2500000   0.2500000), wk =   0.0000000
        k(    7) = (  -0.2500000  -0.2500000  -0.2500000), wk =   0.1250000
        k(    8) = (  -0.2500000   0.2500000  -0.2500000), wk =   0.0000000
        k(    9) = (   0.2500000   0.2500000  -0.2500000), wk =   0.1250000
        k(   10) = (   0.2500000   0.7500000  -0.2500000), wk =   0.0000000
        k(   11) = (  -0.2500000  -0.2500000   0.7500000), wk =   0.2500000
        k(   12) = (  -0.2500000   0.2500000   0.7500000), wk =   0.0000000
        k(   13) = (  -0.2500000  -0.7500000   0.2500000), wk =   0.1250000
        k(   14) = (  -0.2500000  -0.2500000   0.2500000), wk =   0.0000000
        k(   15) = (  -0.2500000   0.7500000  -0.2500000), wk =   0.1250000
        k(   16) = (  -0.2500000   1.2500000  -0.2500000), wk =   0.0000000
        k(   17) = (  -0.2500000  -0.2500000  -0.7500000), wk =   0.2500000
        k(   18) = (  -0.2500000   0.2500000  -0.7500000), wk =   0.0000000
        k(   19) = (   0.2500000   0.2500000  -0.7500000), wk =   0.2500000
        k(   20) = (   0.2500000   0.7500000  -0.7500000), wk =   0.0000000
        k(   21) = (  -0.2500000   0.7500000   0.2500000), wk =   0.1250000
        k(   22) = (  -0.2500000   1.2500000   0.2500000), wk =   0.0000000
        k(   23) = (  -0.2500000  -0.7500000  -0.2500000), wk =   0.1250000
        k(   24) = (  -0.2500000  -0.2500000  -0.2500000), wk =   0.0000000

     Dense  grid:     2445 G-vectors     FFT dimensions: (  20,  20,  20)

     Largest allocated arrays     est. size (Mb)     dimensions
        Kohn-Sham Wavefunctions         0.01 Mb     (     163,    4)
        NL pseudopotentials             0.02 Mb     (     163,    8)
        Each V/rho on FFT grid          0.06 Mb     (    4000)
        Each G-vector array             0.01 Mb     (    1224)
        G-vector shells                 0.00 Mb     (      61)
     Largest temporary arrays     est. size (Mb)     dimensions
        Auxiliary wavefunctions         0.04 Mb     (     163,   16)
        Each subspace H/S matrix        0.00 Mb     (      16,   16)
        Each <psi_i|beta_j> matrix      0.00 Mb     (       8,    4)

     The potential is recalculated from file :
     /home/nvarini/espresso_hdf5/espresso/tempdir/_ph0/alas.save/charge-density.hdf5

     Starting wfc are    8 atomic wfcs

     Band Structure Calculation
     Davidson diagonalization with overlap

     ethr =  1.25E-10,  avg # of iterations = 11.7

     total cpu time spent up to now is        0.7 secs

     End of band structure calculation

          k = 0.2500 0.2500 0.2500 (   311 PWs)   bands (ev):

    -6.3575   1.7035   4.6970   4.6970

          k = 0.2500 0.7500 0.2500 (   311 PWs)   bands (ev):

    -5.1819  -0.0415   2.3125   3.5086

          k = 0.2500 0.2500 0.7500 (   311 PWs)   bands (ev):

    -5.1819  -0.0415   2.3125   3.5086

          k = 0.2500 0.7500 0.7500 (   311 PWs)   bands (ev):

    -5.1819  -0.0415   2.3125   3.5086

          k =-0.2500-0.2500 0.2500 (   311 PWs)   bands (ev):

    -6.3575   1.7035   4.6970   4.6970

          k =-0.2500 0.2500 0.2500 (   311 PWs)   bands (ev):

    -6.3575   1.7035   4.6970   4.6970

          k =-0.2500-0.2500-0.2500 (   311 PWs)   bands (ev):

    -6.3575   1.7035   4.6970   4.6970

          k =-0.2500 0.2500-0.2500 (   311 PWs)   bands (ev):

    -6.3575   1.7035   4.6970   4.6970

          k = 0.2500 0.2500-0.2500 (   311 PWs)   bands (ev):

    -6.3575   1.7035   4.6970   4.6970

          k = 0.2500 0.7500-0.2500 (   311 PWs)   bands (ev):

    -5.1819  -0.0415   2.3125   3.5086

          k =-0.2500-0.2500 0.7500 (   311 PWs)   bands (ev):

    -5.1819  -0.0415   2.3125   3.5086

          k =-0.2500 0.2500 0.7500 (   311 PWs)   bands (ev):

    -5.1819  -0.0415   2.3125   3.5086

          k =-0.2500-0.7500 0.2500 (   311 PWs)   bands (ev):

    -5.1819  -0.0415   2.3125   3.5086

          k =-0.2500-0.2500 0.2500 (   311 PWs)   bands (ev):

    -6.3575   1.7035   4.6970   4.6970

          k =-0.2500 0.7500-0.2500 (   311 PWs)   bands (ev):

    -5.1819  -0.0415   2.3125   3.5086

          k =-0.2500 1.2500-0.2500 (   311 PWs)   bands (ev):

    -5.1819  -0.0415   2.3125   3.5086

          k =-0.2500-0.2500-0.7500 (   311 PWs)   bands (ev):

    -5.1819  -0.0415   2.3125   3.5086

          k =-0.2500 0.2500-0.7500 (   311 PWs)   bands (ev):

    -5.1819  -0.0415   2.3125   3.5086

          k = 0.2500 0.2500-0.7500 (   311 PWs)   bands (ev):

    -5.1819  -0.0415   2.3125   3.5086

          k = 0.2500 0.7500-0.7500 (   311 PWs)   bands (ev):

    -5.1819  -0.0415   2.3125   3.5086

          k =-0.2500 0.7500 0.2500 (   311 PWs)   bands (ev):

    -5.1819  -0.0415   2.3125   3.5086

          k =-0.2500 1.2500 0.2500 (   311 PWs)   bands (ev):

    -5.1819  -0.0415   2.3125   3.5086

          k =-0.2500-0.7500-0.2500 (   311 PWs)   bands (ev):

    -5.1819  -0.0415   2.3125   3.5086

          k =-0.2500-0.2500-0.2500 (   311 PWs)   bands (ev):

    -6.3575   1.7035   4.6970   4.6970

     highest occupied level (ev):     4.6970

     Writing output data file alas.save

                                                                                

     bravais-lattice index     =            2
     lattice parameter (alat)  =      10.5000  a.u.
     unit-cell volume          =     289.4062 (a.u.)^3
     number of atoms/cell      =            2
     number of atomic types    =            2
     kinetic-energy cut-off    =      16.0000  Ry
     charge density cut-off    =      64.0000  Ry
     convergence threshold     =      1.0E-12
     beta                      =       0.7000
     number of iterations used =            4
     Exchange-correlation      =  SLA  PZ   NOGX NOGC ( 1  1  0  0 0 0)


     celldm(1)=   10.50000  celldm(2)=    0.00000  celldm(3)=    0.00000
     celldm(4)=    0.00000  celldm(5)=    0.00000  celldm(6)=    0.00000

     crystal axes: (cart. coord. in units of alat)
               a(1) = ( -0.5000  0.0000  0.5000 )  
               a(2) = (  0.0000  0.5000  0.5000 )  
               a(3) = ( -0.5000  0.5000  0.0000 )  

     reciprocal axes: (cart. coord. in units 2 pi/alat)
               b(1) = ( -1.0000 -1.0000  1.0000 )  
               b(2) = (  1.0000  1.0000  1.0000 )  
               b(3) = ( -1.0000  1.0000 -1.0000 )  


     Atoms inside the unit cell: 

     Cartesian axes

     site n.  atom      mass           positions (alat units)
        1     Al  26.9800   tau(    1) = (    0.00000    0.00000    0.00000  )
        2     As  74.9200   tau(    2) = (    0.25000    0.25000    0.25000  )

     Computing dynamical matrix for 
                    q = (   0.0000000   0.5000000   0.0000000 )
 
      4 Sym.Ops. (no q -> -q+G )


     G cutoff =  178.7306  (   1224 G-vectors)     FFT grid: ( 20, 20, 20)
     number of k points=    24

     PseudoPot. # 1 for Al read from file:
     /home/nvarini/espresso_hdf5/espresso/pseudo/Al.pz-vbc.UPF
     MD5 check sum: 614279c88ff8d45c90147292d03ed420
     Pseudo is Norm-conserving, Zval =  3.0
     Generated by new atomic code, or converted to UPF format
     Using radial grid of  171 points,  2 beta functions with: 
                l(1) =   0
                l(2) =   1

     PseudoPot. # 2 for As read from file:
     /home/nvarini/espresso_hdf5/espresso/pseudo/As.pz-bhs.UPF
     MD5 check sum: 451cd3365afcfc94d28b1934951c34a8
     Pseudo is Norm-conserving, Zval =  5.0
     Generated by new atomic code, or converted to UPF format
     Using radial grid of  525 points,  2 beta functions with: 
                l(1) =   0
                l(2) =   1

     Mode symmetry, C_2v (mm2)  point group:


     Atomic displacements:
     There are   6 irreducible representations

     Representation     1      1 modes -A_1  D_1  S_1  To be done

     Representation     2      1 modes -A_1  D_1  S_1  To be done

     Representation     3      1 modes -B_1  D_3  S_3  To be done

     Representation     4      1 modes -B_1  D_3  S_3  To be done

     Representation     5      1 modes -B_2  D_4  S_4  To be done

     Representation     6      1 modes -B_2  D_4  S_4  To be done



     Alpha used in Ewald sum =   0.7000
     PHONON       :     5.38s CPU         5.70s WALL



     Representation #  1 mode #   1

     Self-consistent Calculation

      iter #   1 total cpu time :     5.8 secs   av.it.:   6.5
      thresh= 1.000E-02 alpha_mix =  0.700 |ddv_scf|^2 =  1.919E-03

      iter #   2 total cpu time :     5.8 secs   av.it.:   8.0
      thresh= 4.381E-03 alpha_mix =  0.700 |ddv_scf|^2 =  1.597E-02

      iter #   3 total cpu time :     5.9 secs   av.it.:   7.0
      thresh= 1.000E-02 alpha_mix =  0.700 |ddv_scf|^2 =  2.118E-06

      iter #   4 total cpu time :     6.0 secs   av.it.:   8.3
      thresh= 1.455E-04 alpha_mix =  0.700 |ddv_scf|^2 =  2.555E-08

      iter #   5 total cpu time :     6.1 secs   av.it.:   8.8
      thresh= 1.599E-05 alpha_mix =  0.700 |ddv_scf|^2 =  1.139E-10

      iter #   6 total cpu time :     6.2 secs   av.it.:   8.2
      thresh= 1.067E-06 alpha_mix =  0.700 |ddv_scf|^2 =  2.783E-10

      iter #   7 total cpu time :     6.2 secs   av.it.:   7.0
      thresh= 1.668E-06 alpha_mix =  0.700 |ddv_scf|^2 =  2.321E-11

      iter #   8 total cpu time :     6.3 secs   av.it.:   7.3
      thresh= 4.818E-07 alpha_mix =  0.700 |ddv_scf|^2 =  2.888E-15

     End of self-consistent calculation

     Convergence has been achieved 


     Representation #  2 mode #   2

     Self-consistent Calculation

      iter #   1 total cpu time :     6.4 secs   av.it.:   5.7
      thresh= 1.000E-02 alpha_mix =  0.700 |ddv_scf|^2 =  3.752E-04

      iter #   2 total cpu time :     6.5 secs   av.it.:   7.9
      thresh= 1.937E-03 alpha_mix =  0.700 |ddv_scf|^2 =  2.910E-03

      iter #   3 total cpu time :     6.5 secs   av.it.:   6.7
      thresh= 5.395E-03 alpha_mix =  0.700 |ddv_scf|^2 =  5.619E-07

      iter #   4 total cpu time :     6.6 secs   av.it.:   7.8
      thresh= 7.496E-05 alpha_mix =  0.700 |ddv_scf|^2 =  5.688E-09

      iter #   5 total cpu time :     6.7 secs   av.it.:   8.8
      thresh= 7.542E-06 alpha_mix =  0.700 |ddv_scf|^2 =  5.285E-11

      iter #   6 total cpu time :     6.8 secs   av.it.:   8.2
      thresh= 7.270E-07 alpha_mix =  0.700 |ddv_scf|^2 =  9.968E-12

      iter #   7 total cpu time :     6.9 secs   av.it.:   7.9
      thresh= 3.157E-07 alpha_mix =  0.700 |ddv_scf|^2 =  2.660E-11

      iter #   8 total cpu time :     6.9 secs   av.it.:   6.9
      thresh= 5.158E-07 alpha_mix =  0.700 |ddv_scf|^2 =  3.085E-14

     End of self-consistent calculation

     Convergence has been achieved 


     Representation #  3 mode #   3

     Self-consistent Calculation

      iter #   1 total cpu time :     7.0 secs   av.it.:   4.9
      thresh= 1.000E-02 alpha_mix =  0.700 |ddv_scf|^2 =  1.095E-06

      iter #   2 total cpu time :     7.1 secs   av.it.:   8.4
      thresh= 1.046E-04 alpha_mix =  0.700 |ddv_scf|^2 =  1.262E-07

      iter #   3 total cpu time :     7.1 secs   av.it.:   8.2
      thresh= 3.552E-05 alpha_mix =  0.700 |ddv_scf|^2 =  6.594E-10

      iter #   4 total cpu time :     7.2 secs   av.it.:   8.0
      thresh= 2.568E-06 alpha_mix =  0.700 |ddv_scf|^2 =  2.115E-11

      iter #   5 total cpu time :     7.3 secs   av.it.:   7.8
      thresh= 4.598E-07 alpha_mix =  0.700 |ddv_scf|^2 =  3.764E-15

     End of self-consistent calculation

     Convergence has been achieved 


     Representation #  4 mode #   4

     Self-consistent Calculation

      iter #   1 total cpu time :     7.4 secs   av.it.:   5.8
      thresh= 1.000E-02 alpha_mix =  0.700 |ddv_scf|^2 =  8.766E-06

      iter #   2 total cpu time :     7.5 secs   av.it.:   8.4
      thresh= 2.961E-04 alpha_mix =  0.700 |ddv_scf|^2 =  1.179E-06

      iter #   3 total cpu time :     7.5 secs   av.it.:   8.1
      thresh= 1.086E-04 alpha_mix =  0.700 |ddv_scf|^2 =  3.848E-10

      iter #   4 total cpu time :     7.6 secs   av.it.:   8.0
      thresh= 1.962E-06 alpha_mix =  0.700 |ddv_scf|^2 =  1.528E-11

      iter #   5 total cpu time :     7.7 secs   av.it.:   8.2
      thresh= 3.909E-07 alpha_mix =  0.700 |ddv_scf|^2 =  6.659E-14

     End of self-consistent calculation

     Convergence has been achieved 


     Representation #  5 mode #   5

     Self-consistent Calculation

      iter #   1 total cpu time :     7.8 secs   av.it.:   5.8
      thresh= 1.000E-02 alpha_mix =  0.700 |ddv_scf|^2 =  8.766E-06

      iter #   2 total cpu time :     7.8 secs   av.it.:   8.4
      thresh= 2.961E-04 alpha_mix =  0.700 |ddv_scf|^2 =  1.179E-06

      iter #   3 total cpu time :     7.9 secs   av.it.:   8.2
      thresh= 1.086E-04 alpha_mix =  0.700 |ddv_scf|^2 =  3.853E-10

      iter #   4 total cpu time :     8.0 secs   av.it.:   8.0
      thresh= 1.963E-06 alpha_mix =  0.700 |ddv_scf|^2 =  1.531E-11

      iter #   5 total cpu time :     8.1 secs   av.it.:   8.2
      thresh= 3.913E-07 alpha_mix =  0.700 |ddv_scf|^2 =  6.691E-14

     End of self-consistent calculation

     Convergence has been achieved 


     Representation #  6 mode #   6

     Self-consistent Calculation

      iter #   1 total cpu time :     8.1 secs   av.it.:   4.9
      thresh= 1.000E-02 alpha_mix =  0.700 |ddv_scf|^2 =  1.095E-06

      iter #   2 total cpu time :     8.2 secs   av.it.:   8.4
      thresh= 1.046E-04 alpha_mix =  0.700 |ddv_scf|^2 =  1.261E-07

      iter #   3 total cpu time :     8.3 secs   av.it.:   8.3
      thresh= 3.552E-05 alpha_mix =  0.700 |ddv_scf|^2 =  6.605E-10

      iter #   4 total cpu time :     8.4 secs   av.it.:   7.9
      thresh= 2.570E-06 alpha_mix =  0.700 |ddv_scf|^2 =  2.114E-11

      iter #   5 total cpu time :     8.5 secs   av.it.:   7.9
      thresh= 4.598E-07 alpha_mix =  0.700 |ddv_scf|^2 =  3.834E-15

     End of self-consistent calculation

     Convergence has been achieved 
 
     Number of q in the star =    6
     List of q in the star:
          1   0.000000000   0.500000000   0.000000000
          2  -0.500000000   0.000000000   0.000000000
          3   0.000000000  -0.500000000   0.000000000
          4   0.000000000   0.000000000   0.500000000
          5   0.000000000   0.000000000  -0.500000000
          6   0.500000000   0.000000000   0.000000000

     Diagonalizing the dynamical matrix

     q = (    0.000000000   0.500000000   0.000000000 ) 

 **************************************************************************
     freq (    1) =       2.421158 [THz] =      80.761128 [cm-1]
     freq (    2) =       2.421158 [THz] =      80.761128 [cm-1]
     freq (    3) =       4.606717 [THz] =     153.663551 [cm-1]
     freq (    4) =      10.666707 [THz] =     355.803056 [cm-1]
     freq (    5) =      10.666707 [THz] =     355.803056 [cm-1]
     freq (    6) =      12.371376 [THz] =     412.664676 [cm-1]
 **************************************************************************

     Mode symmetry, C_2v (mm2)  point group:

     freq (  1 -  1) =         80.8  [cm-1]   --> B_1  D_3  S_3      
     freq (  2 -  2) =         80.8  [cm-1]   --> B_2  D_4  S_4      
     freq (  3 -  3) =        153.7  [cm-1]   --> A_1  D_1  S_1      
     freq (  4 -  4) =        355.8  [cm-1]   --> B_1  D_3  S_3      
     freq (  5 -  5) =        355.8  [cm-1]   --> B_2  D_4  S_4      
     freq (  6 -  6) =        412.7  [cm-1]   --> A_1  D_1  S_1      

     Calculation of q =    0.7500000  -0.2500000   0.7500000
 
     Parallelization info
     --------------------
     sticks:   dense  smooth     PW     G-vecs:    dense   smooth      PW
     Min         120     120     48                 1221     1221     322
     Max         121     121     49                 1224     1224     323
     Sum         241     241     97                 2445     2445     645
 


     bravais-lattice index     =            2
     lattice parameter (alat)  =      10.5000  a.u.
     unit-cell volume          =     289.4062 (a.u.)^3
     number of atoms/cell      =            2
     number of atomic types    =            2
     number of electrons       =         8.00
     number of Kohn-Sham states=            4
     kinetic-energy cutoff     =      16.0000  Ry
     charge density cutoff     =      64.0000  Ry
     Exchange-correlation      =  SLA  PZ   NOGX NOGC ( 1  1  0  0 0 0)

     celldm(1)=  10.500000  celldm(2)=   0.000000  celldm(3)=   0.000000
     celldm(4)=   0.000000  celldm(5)=   0.000000  celldm(6)=   0.000000

     crystal axes: (cart. coord. in units of alat)
               a(1) = (  -0.500000   0.000000   0.500000 )  
               a(2) = (   0.000000   0.500000   0.500000 )  
               a(3) = (  -0.500000   0.500000   0.000000 )  

     reciprocal axes: (cart. coord. in units 2 pi/alat)
               b(1) = ( -1.000000 -1.000000  1.000000 )  
               b(2) = (  1.000000  1.000000  1.000000 )  
               b(3) = ( -1.000000  1.000000 -1.000000 )  


     PseudoPot. # 1 for Al read from file:
     /home/nvarini/espresso_hdf5/espresso/pseudo/Al.pz-vbc.UPF
     MD5 check sum: 614279c88ff8d45c90147292d03ed420
     Pseudo is Norm-conserving, Zval =  3.0
     Generated by new atomic code, or converted to UPF format
     Using radial grid of  171 points,  2 beta functions with: 
                l(1) =   0
                l(2) =   1

     PseudoPot. # 2 for As read from file:
     /home/nvarini/espresso_hdf5/espresso/pseudo/As.pz-bhs.UPF
     MD5 check sum: 451cd3365afcfc94d28b1934951c34a8
     Pseudo is Norm-conserving, Zval =  5.0
     Generated by new atomic code, or converted to UPF format
     Using radial grid of  525 points,  2 beta functions with: 
                l(1) =   0
                l(2) =   1

     atomic species   valence    mass     pseudopotential
        Al             3.00    26.98000     Al( 1.00)
        As             5.00    74.92000     As( 1.00)

     24 Sym. Ops. (no inversion) found



   Cartesian axes

     site n.     atom                  positions (alat units)
         1           Al  tau(   1) = (   0.0000000   0.0000000   0.0000000  )
         2           As  tau(   2) = (   0.2500000   0.2500000   0.2500000  )

     number of k points=    40
                       cart. coord. in units 2pi/alat
        k(    1) = (   0.2500000   0.2500000   0.2500000), wk =   0.0625000
        k(    2) = (   1.0000000   0.0000000   1.0000000), wk =   0.0000000
        k(    3) = (   0.2500000   0.2500000   0.7500000), wk =   0.1250000
        k(    4) = (   1.0000000   0.0000000   1.5000000), wk =   0.0000000
        k(    5) = (  -0.2500000   0.2500000  -0.2500000), wk =   0.0625000
        k(    6) = (   0.5000000   0.0000000   0.5000000), wk =   0.0000000
        k(    7) = (  -0.2500000  -0.2500000   0.2500000), wk =   0.1250000
        k(    8) = (   0.5000000  -0.5000000   1.0000000), wk =   0.0000000
        k(    9) = (  -0.2500000  -0.2500000  -0.2500000), wk =   0.0625000
        k(   10) = (   0.5000000  -0.5000000   0.5000000), wk =   0.0000000
        k(   11) = (   0.2500000   0.2500000  -0.2500000), wk =   0.1250000
        k(   12) = (   1.0000000   0.0000000   0.5000000), wk =   0.0000000
        k(   13) = (   0.2500000  -0.2500000   0.2500000), wk =   0.0625000
        k(   14) = (   1.0000000  -0.5000000   1.0000000), wk =   0.0000000
        k(   15) = (  -0.2500000   0.2500000  -0.7500000), wk =   0.1250000
        k(   16) = (   0.5000000   0.0000000   0.0000000), wk =   0.0000000
        k(   17) = (  -0.2500000  -0.2500000   0.7500000), wk =   0.1250000
        k(   18) = (   0.5000000  -0.5000000   1.5000000), wk =   0.0000000
        k(   19) = (  -0.2500000  -0.7500000   0.2500000), wk =   0.1250000
        k(   20) = (   0.5000000  -1.0000000   1.0000000), wk =   0.0000000
        k(   21) = (  -0.7500000  -0.2500000   0.2500000), wk =   0.1250000
        k(   22) = (   0.0000000  -0.5000000   1.0000000), wk =   0.0000000
        k(   23) = (  -0.2500000   0.7500000  -0.2500000), wk =   0.0625000
        k(   24) = (   0.5000000   0.5000000   0.5000000), wk =   0.0000000
        k(   25) = (   0.2500000   0.7500000   0.2500000), wk =   0.0625000
        k(   26) = (   1.0000000   0.5000000   1.0000000), wk =   0.0000000
        k(   27) = (  -0.2500000  -0.2500000  -0.7500000), wk =   0.1250000
        k(   28) = (   0.5000000  -0.5000000   0.0000000), wk =   0.0000000
        k(   29) = (   0.2500000   0.2500000  -0.7500000), wk =   0.1250000
        k(   30) = (   1.0000000   0.0000000   0.0000000), wk =   0.0000000
        k(   31) = (   0.2500000  -0.2500000   0.7500000), wk =   0.1250000
        k(   32) = (   1.0000000  -0.5000000   1.5000000), wk =   0.0000000
        k(   33) = (  -0.2500000   0.2500000   0.7500000), wk =   0.1250000
        k(   34) = (   0.5000000   0.0000000   1.5000000), wk =   0.0000000
        k(   35) = (  -0.2500000   0.7500000   0.2500000), wk =   0.1250000
        k(   36) = (   0.5000000   0.5000000   1.0000000), wk =   0.0000000
        k(   37) = (  -0.2500000  -0.7500000  -0.2500000), wk =   0.0625000
        k(   38) = (   0.5000000  -1.0000000   0.5000000), wk =   0.0000000
        k(   39) = (   0.2500000  -0.7500000   0.2500000), wk =   0.0625000
        k(   40) = (   1.0000000  -1.0000000   1.0000000), wk =   0.0000000

     Dense  grid:     2445 G-vectors     FFT dimensions: (  20,  20,  20)

     Largest allocated arrays     est. size (Mb)     dimensions
        Kohn-Sham Wavefunctions         0.01 Mb     (     165,    4)
        NL pseudopotentials             0.02 Mb     (     165,    8)
        Each V/rho on FFT grid          0.06 Mb     (    4000)
        Each G-vector array             0.01 Mb     (    1224)
        G-vector shells                 0.00 Mb     (      61)
     Largest temporary arrays     est. size (Mb)     dimensions
        Auxiliary wavefunctions         0.04 Mb     (     165,   16)
        Each subspace H/S matrix        0.00 Mb     (      16,   16)
        Each <psi_i|beta_j> matrix      0.00 Mb     (       8,    4)

     The potential is recalculated from file :
     /home/nvarini/espresso_hdf5/espresso/tempdir/_ph0/alas.save/charge-density.hdf5

     Starting wfc are    8 atomic wfcs

     Band Structure Calculation
     Davidson diagonalization with overlap

     ethr =  1.25E-10,  avg # of iterations = 11.0

     total cpu time spent up to now is        1.1 secs

     End of band structure calculation

          k = 0.2500 0.2500 0.2500 (   311 PWs)   bands (ev):

    -6.3575   1.7035   4.6970   4.6970

          k = 1.0000 0.0000 1.0000 (   302 PWs)   bands (ev):

    -4.8216  -0.4470   2.9274   2.9274

          k = 0.2500 0.2500 0.7500 (   311 PWs)   bands (ev):

    -5.1819  -0.0415   2.3125   3.5086

          k = 1.0000 0.0000 1.5000 (   308 PWs)   bands (ev):

    -4.7852  -0.0517   1.7949   2.1910

          k =-0.2500 0.2500-0.2500 (   311 PWs)   bands (ev):

    -6.3575   1.7035   4.6970   4.6970

          k = 0.5000 0.0000 0.5000 (   315 PWs)   bands (ev):

    -5.5287   0.5005   2.1485   4.2663

          k =-0.2500-0.2500 0.2500 (   311 PWs)   bands (ev):

    -6.3575   1.7035   4.6970   4.6970

          k = 0.5000-0.5000 1.0000 (   315 PWs)   bands (ev):

    -5.5287   0.5005   2.1485   4.2663

          k =-0.2500-0.2500-0.2500 (   311 PWs)   bands (ev):

    -6.3575   1.7035   4.6970   4.6970

          k = 0.5000-0.5000 0.5000 (   302 PWs)   bands (ev):

    -5.4218  -0.6403   4.3483   4.3483

          k = 0.2500 0.2500-0.2500 (   311 PWs)   bands (ev):

    -6.3575   1.7035   4.6970   4.6970

          k = 1.0000 0.0000 0.5000 (   308 PWs)   bands (ev):

    -4.7852  -0.0517   1.7949   2.1910

          k = 0.2500-0.2500 0.2500 (   311 PWs)   bands (ev):

    -6.3575   1.7035   4.6970   4.6970

          k = 1.0000-0.5000 1.0000 (   311 PWs)   bands (ev):

    -6.1430   1.9396   3.7847   3.7847

          k =-0.2500 0.2500-0.7500 (   311 PWs)   bands (ev):

    -5.1819  -0.0415   2.3125   3.5086

          k = 0.5000 0.0000 0.0000 (   311 PWs)   bands (ev):

    -6.1430   1.9396   3.7847   3.7847

          k =-0.2500-0.2500 0.7500 (   311 PWs)   bands (ev):

    -5.1819  -0.0415   2.3125   3.5086

          k = 0.5000-0.5000 1.5000 (   302 PWs)   bands (ev):

    -5.4218  -0.6403   4.3483   4.3483

          k =-0.2500-0.7500 0.2500 (   311 PWs)   bands (ev):

    -5.1819  -0.0415   2.3125   3.5086

          k = 0.5000-1.0000 1.0000 (   311 PWs)   bands (ev):

    -6.1430   1.9396   3.7847   3.7847

          k =-0.7500-0.2500 0.2500 (   311 PWs)   bands (ev):

    -5.1819  -0.0415   2.3125   3.5086

          k = 0.0000-0.5000 1.0000 (   308 PWs)   bands (ev):

    -4.7852  -0.0517   1.7949   2.1910

          k =-0.2500 0.7500-0.2500 (   311 PWs)   bands (ev):

    -5.1819  -0.0415   2.3125   3.5086

          k = 0.5000 0.5000 0.5000 (   302 PWs)   bands (ev):

    -5.4218  -0.6403   4.3483   4.3483

          k = 0.2500 0.7500 0.2500 (   311 PWs)   bands (ev):

    -5.1819  -0.0415   2.3125   3.5086

          k = 1.0000 0.5000 1.0000 (   311 PWs)   bands (ev):

    -6.1430   1.9396   3.7847   3.7847

          k =-0.2500-0.2500-0.7500 (   311 PWs)   bands (ev):

    -5.1819  -0.0415   2.3125   3.5086

          k = 0.5000-0.5000 0.0000 (   315 PWs)   bands (ev):

    -5.5287   0.5005   2.1485   4.2663

          k = 0.2500 0.2500-0.7500 (   311 PWs)   bands (ev):

    -5.1819  -0.0415   2.3125   3.5086

          k = 1.0000 0.0000 0.0000 (   302 PWs)   bands (ev):

    -4.8216  -0.4470   2.9274   2.9274

          k = 0.2500-0.2500 0.7500 (   311 PWs)   bands (ev):

    -5.1819  -0.0415   2.3125   3.5086

          k = 1.0000-0.5000 1.5000 (   315 PWs)   bands (ev):

    -5.5287   0.5005   2.1485   4.2663

          k =-0.2500 0.2500 0.7500 (   311 PWs)   bands (ev):

    -5.1819  -0.0415   2.3125   3.5086

          k = 0.5000 0.0000 1.5000 (   315 PWs)   bands (ev):

    -5.5287   0.5005   2.1485   4.2663

          k =-0.2500 0.7500 0.2500 (   311 PWs)   bands (ev):

    -5.1819  -0.0415   2.3125   3.5086

          k = 0.5000 0.5000 1.0000 (   315 PWs)   bands (ev):

    -5.5287   0.5005   2.1485   4.2663

          k =-0.2500-0.7500-0.2500 (   311 PWs)   bands (ev):

    -5.1819  -0.0415   2.3125   3.5086

          k = 0.5000-1.0000 0.5000 (   315 PWs)   bands (ev):

    -5.5287   0.5005   2.1485   4.2663

          k = 0.2500-0.7500 0.2500 (   311 PWs)   bands (ev):

    -5.1819  -0.0415   2.3125   3.5086

          k = 1.0000-1.0000 1.0000 (   331 PWs)   bands (ev):

    -6.9797   5.1761   5.1761   5.1761

     highest occupied level (ev):     5.1761

     Writing output data file alas.save

                                                                                

     bravais-lattice index     =            2
     lattice parameter (alat)  =      10.5000  a.u.
     unit-cell volume          =     289.4062 (a.u.)^3
     number of atoms/cell      =            2
     number of atomic types    =            2
     kinetic-energy cut-off    =      16.0000  Ry
     charge density cut-off    =      64.0000  Ry
     convergence threshold     =      1.0E-12
     beta                      =       0.7000
     number of iterations used =            4
     Exchange-correlation      =  SLA  PZ   NOGX NOGC ( 1  1  0  0 0 0)


     celldm(1)=   10.50000  celldm(2)=    0.00000  celldm(3)=    0.00000
     celldm(4)=    0.00000  celldm(5)=    0.00000  celldm(6)=    0.00000

     crystal axes: (cart. coord. in units of alat)
               a(1) = ( -0.5000  0.0000  0.5000 )  
               a(2) = (  0.0000  0.5000  0.5000 )  
               a(3) = ( -0.5000  0.5000  0.0000 )  

     reciprocal axes: (cart. coord. in units 2 pi/alat)
               b(1) = ( -1.0000 -1.0000  1.0000 )  
               b(2) = (  1.0000  1.0000  1.0000 )  
               b(3) = ( -1.0000  1.0000 -1.0000 )  


     Atoms inside the unit cell: 

     Cartesian axes

     site n.  atom      mass           positions (alat units)
        1     Al  26.9800   tau(    1) = (    0.00000    0.00000    0.00000  )
        2     As  74.9200   tau(    2) = (    0.25000    0.25000    0.25000  )

     Computing dynamical matrix for 
                    q = (   0.7500000  -0.2500000   0.7500000 )
 
      2 Sym.Ops. (no q -> -q+G )


     G cutoff =  178.7306  (   1224 G-vectors)     FFT grid: ( 20, 20, 20)
     number of k points=    40

     PseudoPot. # 1 for Al read from file:
     /home/nvarini/espresso_hdf5/espresso/pseudo/Al.pz-vbc.UPF
     MD5 check sum: 614279c88ff8d45c90147292d03ed420
     Pseudo is Norm-conserving, Zval =  3.0
     Generated by new atomic code, or converted to UPF format
     Using radial grid of  171 points,  2 beta functions with: 
                l(1) =   0
                l(2) =   1

     PseudoPot. # 2 for As read from file:
     /home/nvarini/espresso_hdf5/espresso/pseudo/As.pz-bhs.UPF
     MD5 check sum: 451cd3365afcfc94d28b1934951c34a8
     Pseudo is Norm-conserving, Zval =  5.0
     Generated by new atomic code, or converted to UPF format
     Using radial grid of  525 points,  2 beta functions with: 
                l(1) =   0
                l(2) =   1

     Mode symmetry, C_s (m)     point group:


     Atomic displacements:
     There are   6 irreducible representations

     Representation     1      1 modes -A'  To be done

     Representation     2      1 modes -A'  To be done

     Representation     3      1 modes -A'  To be done

     Representation     4      1 modes -A'  To be done

     Representation     5      1 modes -A''  To be done

     Representation     6      1 modes -A''  To be done



     Alpha used in Ewald sum =   0.7000
     PHONON       :     8.56s CPU         8.98s WALL



     Representation #  1 mode #   1

     Self-consistent Calculation

      iter #   1 total cpu time :     9.1 secs   av.it.:   6.3
      thresh= 1.000E-02 alpha_mix =  0.700 |ddv_scf|^2 =  1.090E-04

      iter #   2 total cpu time :     9.2 secs   av.it.:   8.8
      thresh= 1.044E-03 alpha_mix =  0.700 |ddv_scf|^2 =  2.313E-04

      iter #   3 total cpu time :     9.4 secs   av.it.:   7.8
      thresh= 1.521E-03 alpha_mix =  0.700 |ddv_scf|^2 =  1.031E-06

      iter #   4 total cpu time :     9.5 secs   av.it.:   8.5
      thresh= 1.015E-04 alpha_mix =  0.700 |ddv_scf|^2 =  7.548E-09

      iter #   5 total cpu time :     9.6 secs   av.it.:   8.7
      thresh= 8.688E-06 alpha_mix =  0.700 |ddv_scf|^2 =  6.054E-10

      iter #   6 total cpu time :     9.8 secs   av.it.:   8.6
      thresh= 2.461E-06 alpha_mix =  0.700 |ddv_scf|^2 =  9.923E-12

      iter #   7 total cpu time :     9.9 secs   av.it.:   8.5
      thresh= 3.150E-07 alpha_mix =  0.700 |ddv_scf|^2 =  3.207E-13

     End of self-consistent calculation

     Convergence has been achieved 


     Representation #  2 mode #   2

     Self-consistent Calculation

      iter #   1 total cpu time :    10.0 secs   av.it.:   5.6
      thresh= 1.000E-02 alpha_mix =  0.700 |ddv_scf|^2 =  3.249E-05

      iter #   2 total cpu time :    10.1 secs   av.it.:   8.8
      thresh= 5.700E-04 alpha_mix =  0.700 |ddv_scf|^2 =  6.416E-05

      iter #   3 total cpu time :    10.3 secs   av.it.:   7.8
      thresh= 8.010E-04 alpha_mix =  0.700 |ddv_scf|^2 =  2.656E-07

      iter #   4 total cpu time :    10.4 secs   av.it.:   8.3
      thresh= 5.154E-05 alpha_mix =  0.700 |ddv_scf|^2 =  3.881E-09

      iter #   5 total cpu time :    10.5 secs   av.it.:   8.5
      thresh= 6.230E-06 alpha_mix =  0.700 |ddv_scf|^2 =  2.753E-10

      iter #   6 total cpu time :    10.7 secs   av.it.:   8.7
      thresh= 1.659E-06 alpha_mix =  0.700 |ddv_scf|^2 =  1.663E-11

      iter #   7 total cpu time :    10.8 secs   av.it.:   8.8
      thresh= 4.078E-07 alpha_mix =  0.700 |ddv_scf|^2 =  7.589E-13

     End of self-consistent calculation

     Convergence has been achieved 


     Representation #  3 mode #   3

     Self-consistent Calculation

      iter #   1 total cpu time :    10.9 secs   av.it.:   6.3
      thresh= 1.000E-02 alpha_mix =  0.700 |ddv_scf|^2 =  1.537E-04

      iter #   2 total cpu time :    11.1 secs   av.it.:   8.8
      thresh= 1.240E-03 alpha_mix =  0.700 |ddv_scf|^2 =  3.327E-04

      iter #   3 total cpu time :    11.2 secs   av.it.:   7.8
      thresh= 1.824E-03 alpha_mix =  0.700 |ddv_scf|^2 =  1.124E-06

      iter #   4 total cpu time :    11.3 secs   av.it.:   8.4
      thresh= 1.060E-04 alpha_mix =  0.700 |ddv_scf|^2 =  6.420E-09

      iter #   5 total cpu time :    11.5 secs   av.it.:   8.8
      thresh= 8.012E-06 alpha_mix =  0.700 |ddv_scf|^2 =  5.582E-10

      iter #   6 total cpu time :    11.6 secs   av.it.:   8.6
      thresh= 2.363E-06 alpha_mix =  0.700 |ddv_scf|^2 =  1.268E-11

      iter #   7 total cpu time :    11.7 secs   av.it.:   8.4
      thresh= 3.562E-07 alpha_mix =  0.700 |ddv_scf|^2 =  3.063E-13

     End of self-consistent calculation

     Convergence has been achieved 


     Representation #  4 mode #   4

     Self-consistent Calculation

      iter #   1 total cpu time :    11.9 secs   av.it.:   5.3
      thresh= 1.000E-02 alpha_mix =  0.700 |ddv_scf|^2 =  9.537E-06

      iter #   2 total cpu time :    12.0 secs   av.it.:   8.9
      thresh= 3.088E-04 alpha_mix =  0.700 |ddv_scf|^2 =  1.109E-05

      iter #   3 total cpu time :    12.1 secs   av.it.:   8.2
      thresh= 3.330E-04 alpha_mix =  0.700 |ddv_scf|^2 =  3.918E-07

      iter #   4 total cpu time :    12.3 secs   av.it.:   8.1
      thresh= 6.259E-05 alpha_mix =  0.700 |ddv_scf|^2 =  2.959E-09

      iter #   5 total cpu time :    12.4 secs   av.it.:   8.6
      thresh= 5.439E-06 alpha_mix =  0.700 |ddv_scf|^2 =  2.116E-10

      iter #   6 total cpu time :    12.5 secs   av.it.:   8.7
      thresh= 1.455E-06 alpha_mix =  0.700 |ddv_scf|^2 =  1.067E-11

      iter #   7 total cpu time :    12.7 secs   av.it.:   8.7
      thresh= 3.267E-07 alpha_mix =  0.700 |ddv_scf|^2 =  2.505E-13

     End of self-consistent calculation

     Convergence has been achieved 


     Representation #  5 mode #   5

     Self-consistent Calculation

      iter #   1 total cpu time :    12.8 secs   av.it.:   4.8
      thresh= 1.000E-02 alpha_mix =  0.700 |ddv_scf|^2 =  1.374E-06

      iter #   2 total cpu time :    12.9 secs   av.it.:   8.4
      thresh= 1.172E-04 alpha_mix =  0.700 |ddv_scf|^2 =  1.984E-07

      iter #   3 total cpu time :    13.0 secs   av.it.:   8.2
      thresh= 4.454E-05 alpha_mix =  0.700 |ddv_scf|^2 =  6.740E-10

      iter #   4 total cpu time :    13.2 secs   av.it.:   7.8
      thresh= 2.596E-06 alpha_mix =  0.700 |ddv_scf|^2 =  1.805E-11

      iter #   5 total cpu time :    13.3 secs   av.it.:   7.5
      thresh= 4.249E-07 alpha_mix =  0.700 |ddv_scf|^2 =  6.553E-15

     End of self-consistent calculation

     Convergence has been achieved 


     Representation #  6 mode #   6

     Self-consistent Calculation

      iter #   1 total cpu time :    13.4 secs   av.it.:   5.8
      thresh= 1.000E-02 alpha_mix =  0.700 |ddv_scf|^2 =  1.022E-05

      iter #   2 total cpu time :    13.5 secs   av.it.:   8.3
      thresh= 3.196E-04 alpha_mix =  0.700 |ddv_scf|^2 =  1.637E-06

      iter #   3 total cpu time :    13.7 secs   av.it.:   8.2
      thresh= 1.279E-04 alpha_mix =  0.700 |ddv_scf|^2 =  3.976E-10

      iter #   4 total cpu time :    13.8 secs   av.it.:   8.1
      thresh= 1.994E-06 alpha_mix =  0.700 |ddv_scf|^2 =  1.425E-11

      iter #   5 total cpu time :    13.9 secs   av.it.:   8.2
      thresh= 3.775E-07 alpha_mix =  0.700 |ddv_scf|^2 =  5.656E-14

     End of self-consistent calculation

     Convergence has been achieved 
 
     Number of q in the star =   12
     List of q in the star:
          1   0.750000000  -0.250000000   0.750000000
          2  -0.750000000  -0.250000000  -0.750000000
          3   0.250000000  -0.750000000   0.750000000
          4  -0.750000000   0.250000000   0.750000000
          5   0.750000000   0.250000000  -0.750000000
          6   0.750000000   0.750000000  -0.250000000
          7  -0.750000000  -0.750000000  -0.250000000
          8  -0.750000000   0.750000000   0.250000000
          9  -0.250000000   0.750000000   0.750000000
         10   0.250000000   0.750000000  -0.750000000
         11  -0.250000000  -0.750000000  -0.750000000
         12   0.750000000  -0.750000000   0.250000000
     In addition there is the -q list: 
          1  -0.750000000   0.250000000  -0.750000000
          2   0.750000000   0.250000000   0.750000000
          3  -0.250000000   0.750000000  -0.750000000
[...]
     celldm(4)=   0.000000  celldm(5)=   0.000000  celldm(6)=   0.000000

     crystal axes: (cart. coord. in units of alat)
               a(1) = (  -0.500000   0.000000   0.500000 )  
               a(2) = (   0.000000   0.500000   0.500000 )  
               a(3) = (  -0.500000   0.500000   0.000000 )  

     reciprocal axes: (cart. coord. in units 2 pi/alat)
               b(1) = ( -1.000000 -1.000000  1.000000 )  
               b(2) = (  1.000000  1.000000  1.000000 )  
               b(3) = ( -1.000000  1.000000 -1.000000 )  


     PseudoPot. # 1 for Al read from file:
     /home/nvarini/espresso_hdf5/espresso/pseudo/Al.pz-vbc.UPF
     MD5 check sum: 614279c88ff8d45c90147292d03ed420
     Pseudo is Norm-conserving, Zval =  3.0
     Generated by new atomic code, or converted to UPF format
     Using radial grid of  171 points,  2 beta functions with: 
                l(1) =   0
                l(2) =   1

     PseudoPot. # 2 for As read from file:
     /home/nvarini/espresso_hdf5/espresso/pseudo/As.pz-bhs.UPF
     MD5 check sum: 451cd3365afcfc94d28b1934951c34a8
     Pseudo is Norm-conserving, Zval =  5.0
     Generated by new atomic code, or converted to UPF format
     Using radial grid of  525 points,  2 beta functions with: 
                l(1) =   0
                l(2) =   1

     atomic species   valence    mass     pseudopotential
        Al             3.00    26.98000     Al( 1.00)
        As             5.00    74.92000     As( 1.00)

     24 Sym. Ops. (no inversion) found



   Cartesian axes

     site n.     atom                  positions (alat units)
         1           Al  tau(   1) = (   0.0000000   0.0000000   0.0000000  )
         2           As  tau(   2) = (   0.2500000   0.2500000   0.2500000  )

     number of k points=    16
                       cart. coord. in units 2pi/alat
        k(    1) = (   0.2500000   0.2500000   0.2500000), wk =   0.2500000
        k(    2) = (  -0.2500000  -0.7500000   0.2500000), wk =   0.0000000
        k(    3) = (   0.2500000   0.2500000   0.7500000), wk =   0.2500000
        k(    4) = (  -0.2500000  -0.7500000   0.7500000), wk =   0.0000000
        k(    5) = (  -0.2500000  -0.2500000  -0.2500000), wk =   0.2500000
        k(    6) = (  -0.7500000  -1.2500000  -0.2500000), wk =   0.0000000
        k(    7) = (  -0.7500000  -0.2500000   0.2500000), wk =   0.2500000
        k(    8) = (  -1.2500000  -1.2500000   0.2500000), wk =   0.0000000
        k(    9) = (  -0.2500000  -0.2500000   0.7500000), wk =   0.2500000
        k(   10) = (  -0.7500000  -1.2500000   0.7500000), wk =   0.0000000
        k(   11) = (  -0.2500000  -0.2500000  -0.7500000), wk =   0.2500000
        k(   12) = (  -0.7500000  -1.2500000  -0.7500000), wk =   0.0000000
        k(   13) = (   0.2500000   0.2500000  -0.7500000), wk =   0.2500000
        k(   14) = (  -0.2500000  -0.7500000  -0.7500000), wk =   0.0000000
        k(   15) = (   0.7500000  -0.2500000   0.2500000), wk =   0.2500000
        k(   16) = (   0.2500000  -1.2500000   0.2500000), wk =   0.0000000

     Dense  grid:     2445 G-vectors     FFT dimensions: (  20,  20,  20)

     Largest allocated arrays     est. size (Mb)     dimensions
        Kohn-Sham Wavefunctions         0.01 Mb     (     182,    4)
        NL pseudopotentials             0.02 Mb     (     182,    8)
        Each V/rho on FFT grid          0.06 Mb     (    4000)
        Each G-vector array             0.01 Mb     (    1224)
        G-vector shells                 0.00 Mb     (      61)
     Largest temporary arrays     est. size (Mb)     dimensions
        Auxiliary wavefunctions         0.04 Mb     (     182,   16)
        Each subspace H/S matrix        0.00 Mb     (      16,   16)
        Each <psi_i|beta_j> matrix      0.00 Mb     (       8,    4)

     The potential is recalculated from file :
     /home/nvarini/espresso_hdf5/espresso/tempdir/_ph0/alas.save/charge-density.hdf5

     Starting wfc are    8 atomic wfcs

     Band Structure Calculation
     Davidson diagonalization with overlap

     ethr =  1.25E-10,  avg # of iterations = 11.8

     total cpu time spent up to now is        2.0 secs

     End of band structure calculation

          k = 0.2500 0.2500 0.2500 (   311 PWs)   bands (ev):

    -6.3575   1.7035   4.6970   4.6970

          k =-0.2500-0.7500 0.2500 (   311 PWs)   bands (ev):

    -5.1819  -0.0415   2.3125   3.5086

          k = 0.2500 0.2500 0.7500 (   311 PWs)   bands (ev):

    -5.1819  -0.0415   2.3125   3.5086

          k =-0.2500-0.7500 0.7500 (   311 PWs)   bands (ev):

    -5.1819  -0.0415   2.3125   3.5086

          k =-0.2500-0.2500-0.2500 (   311 PWs)   bands (ev):

    -6.3575   1.7035   4.6970   4.6970

          k =-0.7500-1.2500-0.2500 (   311 PWs)   bands (ev):

    -5.1819  -0.0415   2.3125   3.5086

          k =-0.7500-0.2500 0.2500 (   311 PWs)   bands (ev):

    -5.1819  -0.0415   2.3125   3.5086

          k =-1.2500-1.2500 0.2500 (   311 PWs)   bands (ev):

    -5.1819  -0.0415   2.3125   3.5086

          k =-0.2500-0.2500 0.7500 (   311 PWs)   bands (ev):

    -5.1819  -0.0415   2.3125   3.5086

          k =-0.7500-1.2500 0.7500 (   311 PWs)   bands (ev):

    -6.3575   1.7035   4.6970   4.6970

          k =-0.2500-0.2500-0.7500 (   311 PWs)   bands (ev):

    -5.1819  -0.0415   2.3125   3.5086

          k =-0.7500-1.2500-0.7500 (   311 PWs)   bands (ev):

    -6.3575   1.7035   4.6970   4.6970

          k = 0.2500 0.2500-0.7500 (   311 PWs)   bands (ev):

    -5.1819  -0.0415   2.3125   3.5086

          k =-0.2500-0.7500-0.7500 (   311 PWs)   bands (ev):

    -5.1819  -0.0415   2.3125   3.5086

          k = 0.7500-0.2500 0.2500 (   311 PWs)   bands (ev):

    -5.1819  -0.0415   2.3125   3.5086

          k = 0.2500-1.2500 0.2500 (   311 PWs)   bands (ev):

    -5.1819  -0.0415   2.3125   3.5086

     highest occupied level (ev):     4.6970

     Writing output data file alas.save

                                                                                

     bravais-lattice index     =            2
     lattice parameter (alat)  =      10.5000  a.u.
     unit-cell volume          =     289.4062 (a.u.)^3
     number of atoms/cell      =            2
     number of atomic types    =            2
     kinetic-energy cut-off    =      16.0000  Ry
     charge density cut-off    =      64.0000  Ry
     convergence threshold     =      1.0E-12
     beta                      =       0.7000
     number of iterations used =            4
     Exchange-correlation      =  SLA  PZ   NOGX NOGC ( 1  1  0  0 0 0)


     celldm(1)=   10.50000  celldm(2)=    0.00000  celldm(3)=    0.00000
     celldm(4)=    0.00000  celldm(5)=    0.00000  celldm(6)=    0.00000

     crystal axes: (cart. coord. in units of alat)
               a(1) = ( -0.5000  0.0000  0.5000 )  
               a(2) = (  0.0000  0.5000  0.5000 )  
               a(3) = ( -0.5000  0.5000  0.0000 )  

     reciprocal axes: (cart. coord. in units 2 pi/alat)
               b(1) = ( -1.0000 -1.0000  1.0000 )  
               b(2) = (  1.0000  1.0000  1.0000 )  
               b(3) = ( -1.0000  1.0000 -1.0000 )  


     Atoms inside the unit cell: 

     Cartesian axes

     site n.  atom      mass           positions (alat units)
        1     Al  26.9800   tau(    1) = (    0.00000    0.00000    0.00000  )
        2     As  74.9200   tau(    2) = (    0.25000    0.25000    0.25000  )

     Computing dynamical matrix for 
                    q = (  -0.5000000  -1.0000000   0.0000000 )
 
      4 Sym.Ops. (no q -> -q+G )


     G cutoff =  178.7306  (   1224 G-vectors)     FFT grid: ( 20, 20, 20)
     number of k points=    16

     PseudoPot. # 1 for Al read from file:
     /home/nvarini/espresso_hdf5/espresso/pseudo/Al.pz-vbc.UPF
     MD5 check sum: 614279c88ff8d45c90147292d03ed420
     Pseudo is Norm-conserving, Zval =  3.0
     Generated by new atomic code, or converted to UPF format
     Using radial grid of  171 points,  2 beta functions with: 
                l(1) =   0
                l(2) =   1

     PseudoPot. # 2 for As read from file:
     /home/nvarini/espresso_hdf5/espresso/pseudo/As.pz-bhs.UPF
     MD5 check sum: 451cd3365afcfc94d28b1934951c34a8
     Pseudo is Norm-conserving, Zval =  5.0
     Generated by new atomic code, or converted to UPF format
     Using radial grid of  525 points,  2 beta functions with: 
                l(1) =   0
                l(2) =   1

     Mode symmetry, S_4 (-4)    point group:


     Atomic displacements:
     There are   6 irreducible representations

     Representation     1      1 modes -A    W_1  To be done

     Representation     2      1 modes -B    W_3  To be done

     Representation     3      1 modes -B    W_3  To be done

     Representation     4      1 modes -E    W_4  To be done

     Representation     5      1 modes -E*   W_2  To be done

     Representation     6      1 modes -E*   W_2  To be done



     Alpha used in Ewald sum =   0.7000
     PHONON       :    20.15s CPU        21.14s WALL



     Representation #  1 mode #   1

     Self-consistent Calculation

      iter #   1 total cpu time :    21.2 secs   av.it.:   6.2
      thresh= 1.000E-02 alpha_mix =  0.700 |ddv_scf|^2 =  6.987E-05

      iter #   2 total cpu time :    21.2 secs   av.it.:   9.1
      thresh= 8.359E-04 alpha_mix =  0.700 |ddv_scf|^2 =  7.443E-05

      iter #   3 total cpu time :    21.3 secs   av.it.:   8.2
      thresh= 8.627E-04 alpha_mix =  0.700 |ddv_scf|^2 =  7.799E-10

      iter #   4 total cpu time :    21.4 secs   av.it.:   9.0
      thresh= 2.793E-06 alpha_mix =  0.700 |ddv_scf|^2 =  7.948E-11

      iter #   5 total cpu time :    21.4 secs   av.it.:   8.2
      thresh= 8.915E-07 alpha_mix =  0.700 |ddv_scf|^2 =  1.710E-13

     End of self-consistent calculation

     Convergence has been achieved 


     Representation #  2 mode #   2

     Self-consistent Calculation

      iter #   1 total cpu time :    21.5 secs   av.it.:   6.2
      thresh= 1.000E-02 alpha_mix =  0.700 |ddv_scf|^2 =  5.006E-05

      iter #   2 total cpu time :    21.5 secs   av.it.:   9.0
      thresh= 7.076E-04 alpha_mix =  0.700 |ddv_scf|^2 =  3.097E-05

      iter #   3 total cpu time :    21.6 secs   av.it.:   8.2
      thresh= 5.565E-04 alpha_mix =  0.700 |ddv_scf|^2 =  5.216E-10

      iter #   4 total cpu time :    21.6 secs   av.it.:   8.5
      thresh= 2.284E-06 alpha_mix =  0.700 |ddv_scf|^2 =  4.887E-11

      iter #   5 total cpu time :    21.7 secs   av.it.:   8.2
      thresh= 6.991E-07 alpha_mix =  0.700 |ddv_scf|^2 =  9.482E-14

     End of self-consistent calculation

     Convergence has been achieved 


     Representation #  3 mode #   3

     Self-consistent Calculation

      iter #   1 total cpu time :    21.8 secs   av.it.:   5.5
      thresh= 1.000E-02 alpha_mix =  0.700 |ddv_scf|^2 =  5.892E-06

      iter #   2 total cpu time :    21.8 secs   av.it.:   9.0
      thresh= 2.427E-04 alpha_mix =  0.700 |ddv_scf|^2 =  3.649E-06

      iter #   3 total cpu time :    21.9 secs   av.it.:   8.2
      thresh= 1.910E-04 alpha_mix =  0.700 |ddv_scf|^2 =  8.509E-10

      iter #   4 total cpu time :    21.9 secs   av.it.:   7.9
      thresh= 2.917E-06 alpha_mix =  0.700 |ddv_scf|^2 =  5.638E-11

      iter #   5 total cpu time :    22.0 secs   av.it.:   8.0
      thresh= 7.509E-07 alpha_mix =  0.700 |ddv_scf|^2 =  1.023E-14

     End of self-consistent calculation

     Convergence has been achieved 


     Representation #  4 mode #   4

     Self-consistent Calculation

      iter #   1 total cpu time :    22.0 secs   av.it.:   5.5
      thresh= 1.000E-02 alpha_mix =  0.700 |ddv_scf|^2 =  8.941E-06

      iter #   2 total cpu time :    22.1 secs   av.it.:   8.8
      thresh= 2.990E-04 alpha_mix =  0.700 |ddv_scf|^2 =  6.124E-06

      iter #   3 total cpu time :    22.1 secs   av.it.:   8.2
      thresh= 2.475E-04 alpha_mix =  0.700 |ddv_scf|^2 =  6.943E-09

      iter #   4 total cpu time :    22.2 secs   av.it.:   8.2
      thresh= 8.333E-06 alpha_mix =  0.700 |ddv_scf|^2 =  7.999E-11

      iter #   5 total cpu time :    22.2 secs   av.it.:   8.0
      thresh= 8.944E-07 alpha_mix =  0.700 |ddv_scf|^2 =  1.129E-13

     End of self-consistent calculation

     Convergence has been achieved 


     Representation #  5 mode #   5

     Self-consistent Calculation

      iter #   1 total cpu time :    22.3 secs   av.it.:   5.8
      thresh= 1.000E-02 alpha_mix =  0.700 |ddv_scf|^2 =  7.731E-06

      iter #   2 total cpu time :    22.4 secs   av.it.:   9.1
      thresh= 2.781E-04 alpha_mix =  0.700 |ddv_scf|^2 =  3.396E-06

      iter #   3 total cpu time :    22.4 secs   av.it.:   8.2
      thresh= 1.843E-04 alpha_mix =  0.700 |ddv_scf|^2 =  9.863E-10

      iter #   4 total cpu time :    22.5 secs   av.it.:   8.2
      thresh= 3.141E-06 alpha_mix =  0.700 |ddv_scf|^2 =  1.620E-11

      iter #   5 total cpu time :    22.5 secs   av.it.:   8.2
      thresh= 4.024E-07 alpha_mix =  0.700 |ddv_scf|^2 =  4.368E-14

     End of self-consistent calculation

     Convergence has been achieved 


     Representation #  6 mode #   6

     Self-consistent Calculation

      iter #   1 total cpu time :    22.6 secs   av.it.:   6.2
      thresh= 1.000E-02 alpha_mix =  0.700 |ddv_scf|^2 =  2.824E-05

      iter #   2 total cpu time :    22.6 secs   av.it.:   9.2
      thresh= 5.314E-04 alpha_mix =  0.700 |ddv_scf|^2 =  1.351E-05

      iter #   3 total cpu time :    22.7 secs   av.it.:   8.2
      thresh= 3.676E-04 alpha_mix =  0.700 |ddv_scf|^2 =  1.547E-09

      iter #   4 total cpu time :    22.8 secs   av.it.:   8.8
      thresh= 3.933E-06 alpha_mix =  0.700 |ddv_scf|^2 =  5.701E-11

      iter #   5 total cpu time :    22.8 secs   av.it.:   8.8
      thresh= 7.551E-07 alpha_mix =  0.700 |ddv_scf|^2 =  1.163E-13

     End of self-consistent calculation

     Convergence has been achieved 
 
     Number of q in the star =    6
     List of q in the star:
          1  -0.500000000  -1.000000000   0.000000000
          2   0.000000000   1.000000000  -0.500000000
          3   0.000000000   1.000000000   0.500000000
          4   0.500000000   1.000000000   0.000000000
          5   0.000000000  -0.500000000  -1.000000000
          6   0.000000000   0.500000000  -1.000000000

     Diagonalizing the dynamical matrix

     q = (   -0.500000000  -1.000000000   0.000000000 ) 

 **************************************************************************
     freq (    1) =       3.747042 [THz] =     124.987862 [cm-1]
     freq (    2) =       4.016734 [THz] =     133.983837 [cm-1]
     freq (    3) =       5.965704 [THz] =     198.994465 [cm-1]
     freq (    4) =      10.537188 [THz] =     351.482757 [cm-1]
     freq (    5) =      10.644697 [THz] =     355.068871 [cm-1]
     freq (    6) =      10.758922 [THz] =     358.879012 [cm-1]
 **************************************************************************

     Mode symmetry, S_4 (-4)    point group:

     freq (  1 -  1) =        125.0  [cm-1]   --> B    W_3           
     freq (  2 -  2) =        134.0  [cm-1]   --> E*   W_2           
     freq (  3 -  3) =        199.0  [cm-1]   --> A    W_1           
     freq (  4 -  4) =        351.5  [cm-1]   --> B    W_3           
     freq (  5 -  5) =        355.1  [cm-1]   --> E    W_4           
     freq (  6 -  6) =        358.9  [cm-1]   --> E*   W_2           
 
     init_run     :      0.15s CPU      0.15s WALL (       7 calls)
     electrons    :      1.32s CPU      1.38s WALL (       7 calls)

     Called by init_run:
     wfcinit      :      0.00s CPU      0.00s WALL (       7 calls)
     potinit      :      0.01s CPU      0.01s WALL (       7 calls)

     Called by electrons:
     c_bands      :      1.32s CPU      1.38s WALL (       7 calls)
     v_of_rho     :      0.00s CPU      0.00s WALL (       8 calls)

     Called by c_bands:
     init_us_2    :      0.06s CPU      0.16s WALL (    3516 calls)
     cegterg      :      1.07s CPU      1.12s WALL (     156 calls)

     Called by sum_band:

     Called by *egterg:
     h_psi        :     11.88s CPU     12.36s WALL (   29894 calls)
     g_psi        :      0.01s CPU      0.02s WALL (    1782 calls)
     cdiaghg      :      0.19s CPU      0.17s WALL (    1938 calls)

     Called by h_psi:
     add_vuspsi   :      0.31s CPU      0.34s WALL (   29894 calls)

     General routines
     calbec       :      0.98s CPU      1.02s WALL (   60420 calls)
     fft          :      0.06s CPU      0.07s WALL (     896 calls)
     ffts         :      0.05s CPU      0.05s WALL (     720 calls)
     fftw         :     11.96s CPU     12.28s WALL (  262272 calls)
     davcio       :      0.14s CPU      0.25s WALL (   10675 calls)
 
     Parallel routines
     fft_scatter  :      3.13s CPU      3.24s WALL (  263888 calls)
 
     PHONON       :    21.73s CPU        22.82s WALL

     INITIALIZATION: 
     phq_setup    :      0.04s CPU      0.04s WALL (       8 calls)
     phq_init     :      0.18s CPU      0.18s WALL (       8 calls)
 
     phq_init     :      0.18s CPU      0.18s WALL (       8 calls)
     init_vloc    :      0.00s CPU      0.00s WALL (       8 calls)
     init_us_1    :      0.07s CPU      0.07s WALL (       8 calls)
 
     DYNAMICAL MATRIX:
     dynmat0      :      0.06s CPU      0.06s WALL (       8 calls)
     phqscf       :     18.76s CPU     19.72s WALL (       8 calls)
     dynmatrix    :      0.02s CPU      0.02s WALL (       8 calls)
 
     phqscf       :     18.76s CPU     19.72s WALL (       8 calls)
     solve_linter :     18.60s CPU     19.54s WALL (      38 calls)
     drhodv       :      0.08s CPU      0.09s WALL (      38 calls)
 
     dynmat0      :      0.06s CPU      0.06s WALL (       8 calls)
     dynmat_us    :      0.05s CPU      0.05s WALL (       8 calls)
     d2ionq       :      0.00s CPU      0.00s WALL (       8 calls)
 
     dynmat_us    :      0.05s CPU      0.05s WALL (       8 calls)
 
     phqscf       :     18.76s CPU     19.72s WALL (       8 calls)
     solve_linter :     18.60s CPU     19.54s WALL (      38 calls)
 
     solve_linter :     18.60s CPU     19.54s WALL (      38 calls)
     dvqpsi_us    :      0.28s CPU      0.28s WALL (     492 calls)
     ortho        :      0.09s CPU      0.10s WALL (    2995 calls)
     cgsolve      :     12.75s CPU     13.31s WALL (    2995 calls)
     incdrhoscf   :      1.42s CPU      1.49s WALL (    2989 calls)
     vpsifft      :      1.07s CPU      1.12s WALL (    2479 calls)
     dv_of_drho   :      0.07s CPU      0.07s WALL (     288 calls)
     mix_pot      :      0.14s CPU      0.14s WALL (     231 calls)
     psymdvscf    :      0.72s CPU      0.73s WALL (     226 calls)
 
     dvqpsi_us    :      0.28s CPU      0.28s WALL (     492 calls)
     dvqpsi_us_on :      0.02s CPU      0.02s WALL (     492 calls)
 
     cgsolve      :     12.75s CPU     13.31s WALL (    2995 calls)
     ch_psi       :     12.17s CPU     12.73s WALL (   27800 calls)
 
     ch_psi       :     12.17s CPU     12.73s WALL (   27800 calls)
     last         :      0.98s CPU      1.06s WALL (   27800 calls)
 
     add_vuspsi   :      0.31s CPU      0.34s WALL (   29894 calls)
 
     incdrhoscf   :      1.42s CPU      1.49s WALL (    2989 calls)
 
 
      General routines
     calbec       :      0.98s CPU      1.02s WALL (   60420 calls)
     fft          :      0.06s CPU      0.07s WALL (     896 calls)
     ffts         :      0.05s CPU      0.05s WALL (     720 calls)
     fftw         :     11.96s CPU     12.28s WALL (  262272 calls)
     davcio       :      0.14s CPU      0.25s WALL (   10675 calls)
     write_rec    :      0.36s CPU      0.41s WALL (     269 calls)
 
 
     PHONON       :    21.73s CPU        22.82s WALL

 
   This run was terminated on:  11:10:37  28Jul2016            

=------------------------------------------------------------------------------=
   JOB DONE.
=------------------------------------------------------------------------------=
