
     Program PHONON v.6.beta (svn rev. 12834M) starts on 25Aug2016 at 11: 7:46 

     This program is part of the open-source Quantum ESPRESSO suite
     for quantum simulation of materials; please cite
         "P. Giannozzi et al., J. Phys.:Condens. Matter 21 395502 (2009);
          URL http://www.quantum-espresso.org", 
     in publications or presentations arising from this work. More details at
     http://www.quantum-espresso.org/quote
 
           HOST :    x86_64-pc-linux-gnu
           ARCH :    x86_64
             CC :    icc
            CPP :    cpp
            F90 :    ifort
            F77 :    ifort
         DFLAGS :    -D__INTEL -D__FFTW -D__MPI -D__PARA -D__HDF5
      BLAS LIBS :    -lmkl_intel_lp64  -lmkl_sequential -lmkl_core
    LAPACK LIBS :    
       FFT LIBS :    
      MASS LIBS :    

     Parallel version (MPI), running on     2 processors
     R & G space division:  proc/nbgrp/npool/nimage =       2

     Reading data from directory:
     /home/nvarini/espresso_hdf5/espresso/tempdir/o2_mol.save

   Info: using nr1, nr2, nr3 values from input

   Info: using nr1, nr2, nr3 values from input

     IMPORTANT: XC functional enforced from input :
     Exchange-correlation      =  SLA  PW   PBE  PBE ( 1  4  3  4 0 0)
     Any further DFT definition will be discarded
     Please, verify this is what you really want

               file O.pbe-rrkjus.UPF: wavefunction(s)  2S renormalized
 
     Parallelization info
     --------------------
     sticks:   dense  smooth     PW     G-vecs:    dense   smooth      PW
     Min        1992     716    177                94522    20324    2520
     Max        1993     717    180                94525    20327    2521
     Sum        3985    1433    357               189047    40651    5041
 
     Generating pointlists ...
     new r_m :   0.0965 (alat units)  0.9650 (a.u.) for type    1

     Calculation of q =    0.0000000   0.0000000   0.0000000

                                                                                

     bravais-lattice index     =            1
     lattice parameter (alat)  =      10.0000  a.u.
     unit-cell volume          =    1000.0000 (a.u.)^3
     number of atoms/cell      =            2
     number of atomic types    =            1
     kinetic-energy cut-off    =      45.0000  Ry
     charge density cut-off    =     500.0000  Ry
     convergence threshold     =      1.0E-15
     beta                      =       0.7000
     number of iterations used =            4
     Exchange-correlation      =  SLA  PW   PBE  PBE ( 1  4  3  4 0 0)


     celldm(1)=   10.00000  celldm(2)=    0.00000  celldm(3)=    0.00000
     celldm(4)=    0.00000  celldm(5)=    0.00000  celldm(6)=    0.00000

     crystal axes: (cart. coord. in units of alat)
               a(1) = (  1.0000  0.0000  0.0000 )  
               a(2) = (  0.0000  1.0000  0.0000 )  
               a(3) = (  0.0000  0.0000  1.0000 )  

     reciprocal axes: (cart. coord. in units 2 pi/alat)
               b(1) = (  1.0000  0.0000  0.0000 )  
               b(2) = (  0.0000  1.0000  0.0000 )  
               b(3) = (  0.0000  0.0000  1.0000 )  


     Atoms inside the unit cell: 

     Cartesian axes

     site n.  atom      mass           positions (alat units)
        1     O   15.9994   tau(    1) = (   -0.11697    0.00000    0.00000  )
        2     O   15.9994   tau(    2) = (    0.11697    0.00000    0.00000  )

     Computing dynamical matrix for 
                    q = (   0.0000000   0.0000000   0.0000000 )
 
     17 Sym.Ops. (with q -> -q+G )


     G cutoff = 1266.5148  (  94522 G-vectors)     FFT grid: ( 72, 72, 72)
     G cutoff =  455.9453  (  20327 G-vectors)  smooth grid: ( 45, 45, 45)
     number of k points=     2
                       cart. coord. in units 2pi/alat
        k(    1) = (   0.0000000   0.0000000   0.0000000), wk =   1.0000000
        k(    2) = (   0.0000000   0.0000000   0.0000000), wk =   1.0000000

     PseudoPot. # 1 for O  read from file:
     /home/nvarini/espresso_hdf5/espresso/pseudo/O.pbe-rrkjus.UPF
     MD5 check sum: 390ba29e75625707450f3bd3f0eb6be9
     Pseudo is Ultrasoft, Zval =  6.0
     Generated by new atomic code, or converted to UPF format
     Using radial grid of 1269 points,  4 beta functions with: 
                l(1) =   0
                l(2) =   0
                l(3) =   1
                l(4) =   1
     Q(r) pseudized with 0 coefficients 


     Mode symmetry, D_4h(4/mmm) point group:

     k=gamma and q=gamma tricks are used


     Electric field:
     Dielectric constant and polarizability
     Born effective charges in two ways 


     Atomic displacements:
     There are   6 irreducible representations

     Representation     1      1 modes -A  To be done

     Representation     2      1 modes -A  To be done

     Representation     3      1 modes -A  To be done

     Representation     4      1 modes - Calculated using symmetry

     Representation     5      1 modes - Calculated using symmetry

     Representation     6      1 modes - Calculated using symmetry



     Alpha used in Ewald sum =   2.8000
     PHONON       :     6.53s CPU         6.68s WALL


     Electric Fields Calculation

      iter #   1 total cpu time :     9.6 secs   av.it.:   5.0
      thresh= 1.000E-02 alpha_mix =  0.700 |ddv_scf|^2 =  1.105E-06

      iter #   2 total cpu time :    11.8 secs   av.it.:   8.0
      thresh= 1.051E-04 alpha_mix =  0.700 |ddv_scf|^2 =  2.387E-07

      iter #   3 total cpu time :    13.9 secs   av.it.:   7.7
      thresh= 4.885E-05 alpha_mix =  0.700 |ddv_scf|^2 =  7.166E-07

      iter #   4 total cpu time :    16.0 secs   av.it.:   6.0
      thresh= 8.465E-05 alpha_mix =  0.700 |ddv_scf|^2 =  3.728E-09

      iter #   5 total cpu time :    18.6 secs   av.it.:   8.0
      thresh= 6.106E-06 alpha_mix =  0.700 |ddv_scf|^2 =  1.776E-10

      iter #   6 total cpu time :    20.9 secs   av.it.:   8.5
      thresh= 1.333E-06 alpha_mix =  0.700 |ddv_scf|^2 =  1.292E-11

      iter #   7 total cpu time :    23.1 secs   av.it.:   7.7
      thresh= 3.594E-07 alpha_mix =  0.700 |ddv_scf|^2 =  1.644E-12

      iter #   8 total cpu time :    25.3 secs   av.it.:   8.0
      thresh= 1.282E-07 alpha_mix =  0.700 |ddv_scf|^2 =  7.979E-14

      iter #   9 total cpu time :    27.6 secs   av.it.:   8.0
      thresh= 2.825E-08 alpha_mix =  0.700 |ddv_scf|^2 =  4.217E-14

      iter #  10 total cpu time :    29.8 secs   av.it.:   7.7
      thresh= 2.054E-08 alpha_mix =  0.700 |ddv_scf|^2 =  3.506E-15

      iter #  11 total cpu time :    31.9 secs   av.it.:   8.2
      thresh= 5.921E-09 alpha_mix =  0.700 |ddv_scf|^2 =  4.698E-17

     End of electric fields calculation

          Dielectric constant in cartesian axis 

          (       1.206784228       0.000000000       0.000000000 )
          (       0.000000000       1.114029551       0.000000000 )
          (       0.000000000       0.000000000       1.114029551 )

     Polarizability (a.u.)^3                    Polarizability (A^3)
     15.39      0.00      0.00             2.2812        0.0000        0.0000
      0.00      8.74      0.00             0.0000        1.2954        0.0000
      0.00      0.00      8.74             0.0000        0.0000        1.2954

          Effective charges (d Force / dE) in cartesian axis

           atom      1   O  
      Ex  (        0.08106        0.00000        0.00000 )
      Ey  (        0.00000       -0.00984        0.00000 )
      Ez  (        0.00000        0.00000       -0.00984 )
           atom      2   O  
      Ex  (        0.08106        0.00000        0.00000 )
      Ey  (        0.00000       -0.00984        0.00000 )
      Ez  (        0.00000        0.00000       -0.00984 )


     Representation #  1 mode #   1

     Self-consistent Calculation

      iter #   1 total cpu time :    35.0 secs   av.it.:   6.5
      thresh= 1.000E-02 alpha_mix =  0.700 |ddv_scf|^2 =  6.282E-07

      iter #   2 total cpu time :    35.9 secs   av.it.:  10.5
      thresh= 7.926E-05 alpha_mix =  0.700 |ddv_scf|^2 =  1.322E-06

      iter #   3 total cpu time :    36.7 secs   av.it.:   9.5
      thresh= 1.150E-04 alpha_mix =  0.700 |ddv_scf|^2 =  1.348E-07

      iter #   4 total cpu time :    37.5 secs   av.it.:   9.5
      thresh= 3.671E-05 alpha_mix =  0.700 |ddv_scf|^2 =  3.000E-09

      iter #   5 total cpu time :    38.4 secs   av.it.:   9.5
      thresh= 5.477E-06 alpha_mix =  0.700 |ddv_scf|^2 =  2.186E-10

      iter #   6 total cpu time :    39.2 secs   av.it.:   9.5
      thresh= 1.479E-06 alpha_mix =  0.700 |ddv_scf|^2 =  5.512E-12

      iter #   7 total cpu time :    40.0 secs   av.it.:   9.0
      thresh= 2.348E-07 alpha_mix =  0.700 |ddv_scf|^2 =  1.494E-12

      iter #   8 total cpu time :    40.9 secs   av.it.:   9.5
      thresh= 1.222E-07 alpha_mix =  0.700 |ddv_scf|^2 =  2.106E-14

      iter #   9 total cpu time :    41.7 secs   av.it.:   9.5
      thresh= 1.451E-08 alpha_mix =  0.700 |ddv_scf|^2 =  1.175E-15

      iter #  10 total cpu time :    42.5 secs   av.it.:  10.0
      thresh= 3.427E-09 alpha_mix =  0.700 |ddv_scf|^2 =  7.309E-16

     End of self-consistent calculation

     Convergence has been achieved 


     Representation #  2 mode #   2

     Self-consistent Calculation

      iter #   1 total cpu time :    43.3 secs   av.it.:   6.0
      thresh= 1.000E-02 alpha_mix =  0.700 |ddv_scf|^2 =  4.938E-07

      iter #   2 total cpu time :    44.2 secs   av.it.:   9.5
      thresh= 7.027E-05 alpha_mix =  0.700 |ddv_scf|^2 =  4.593E-07

      iter #   3 total cpu time :    45.0 secs   av.it.:   7.0
      thresh= 6.777E-05 alpha_mix =  0.700 |ddv_scf|^2 =  2.235E-07

      iter #   4 total cpu time :    45.8 secs   av.it.:   7.5
      thresh= 4.728E-05 alpha_mix =  0.700 |ddv_scf|^2 =  2.455E-09

      iter #   5 total cpu time :    46.6 secs   av.it.:   7.5
      thresh= 4.955E-06 alpha_mix =  0.700 |ddv_scf|^2 =  4.270E-10

      iter #   6 total cpu time :    47.4 secs   av.it.:   6.5
      thresh= 2.066E-06 alpha_mix =  0.700 |ddv_scf|^2 =  1.044E-11

      iter #   7 total cpu time :    48.3 secs   av.it.:   7.0
      thresh= 3.230E-07 alpha_mix =  0.700 |ddv_scf|^2 =  2.656E-13

      iter #   8 total cpu time :    49.1 secs   av.it.:   6.5
      thresh= 5.154E-08 alpha_mix =  0.700 |ddv_scf|^2 =  1.767E-14

      iter #   9 total cpu time :    49.8 secs   av.it.:   6.5
      thresh= 1.329E-08 alpha_mix =  0.700 |ddv_scf|^2 =  6.359E-16

     End of self-consistent calculation

     Convergence has been achieved 


     Representation #  3 mode #   3

     Self-consistent Calculation

      iter #   1 total cpu time :    50.6 secs   av.it.:   6.0
      thresh= 1.000E-02 alpha_mix =  0.700 |ddv_scf|^2 =  4.938E-07

      iter #   2 total cpu time :    51.4 secs   av.it.:   9.5
      thresh= 7.027E-05 alpha_mix =  0.700 |ddv_scf|^2 =  4.593E-07

      iter #   3 total cpu time :    52.2 secs   av.it.:   7.0
      thresh= 6.777E-05 alpha_mix =  0.700 |ddv_scf|^2 =  2.235E-07

      iter #   4 total cpu time :    53.0 secs   av.it.:   7.5
      thresh= 4.728E-05 alpha_mix =  0.700 |ddv_scf|^2 =  2.455E-09

      iter #   5 total cpu time :    53.8 secs   av.it.:   7.5
      thresh= 4.955E-06 alpha_mix =  0.700 |ddv_scf|^2 =  4.270E-10

      iter #   6 total cpu time :    54.6 secs   av.it.:   6.5
      thresh= 2.066E-06 alpha_mix =  0.700 |ddv_scf|^2 =  1.044E-11

      iter #   7 total cpu time :    55.4 secs   av.it.:   7.0
      thresh= 3.230E-07 alpha_mix =  0.700 |ddv_scf|^2 =  2.656E-13

      iter #   8 total cpu time :    56.2 secs   av.it.:   6.5
      thresh= 5.154E-08 alpha_mix =  0.700 |ddv_scf|^2 =  1.767E-14

      iter #   9 total cpu time :    56.9 secs   av.it.:   6.5
      thresh= 1.329E-08 alpha_mix =  0.700 |ddv_scf|^2 =  6.359E-16

     End of self-consistent calculation

     Convergence has been achieved 
 
     Number of q in the star =    1
     List of q in the star:
          1   0.000000000   0.000000000   0.000000000

          Dielectric constant in cartesian axis 

          (       1.206784228       0.000000000       0.000000000 )
          (       0.000000000       1.114029551       0.000000000 )
          (       0.000000000       0.000000000       1.114029551 )

     Polarizability (a.u.)^3                    Polarizability (A^3)
     15.39      0.00      0.00             2.2812        0.0000        0.0000
      0.00      8.74      0.00             0.0000        1.2954        0.0000
      0.00      0.00      8.74             0.0000        0.0000        1.2954

          Effective charges (d Force / dE) in cartesian axis

           atom      1   O  
      Ex  (        0.08106        0.00000        0.00000 )
      Ey  (        0.00000       -0.00984        0.00000 )
      Ez  (        0.00000        0.00000       -0.00984 )
           atom      2   O  
      Ex  (        0.08106        0.00000        0.00000 )
      Ey  (        0.00000       -0.00984        0.00000 )
      Ez  (        0.00000        0.00000       -0.00984 )

          Effective charges (d P / du) in cartesian axis 

           atom      1   O  
      Px  (        0.08072       -0.00000        0.00000 )
      Py  (       -0.00000       -0.00983       -0.00000 )
      Pz  (        0.00000        0.00000       -0.00983 )
           atom      2   O  
      Px  (        0.08072       -0.00000       -0.00000 )
      Py  (       -0.00000       -0.00983        0.00000 )
      Pz  (       -0.00000       -0.00000       -0.00983 )

     Diagonalizing the dynamical matrix

     q = (    0.000000000   0.000000000   0.000000000 ) 

 **************************************************************************
     freq (    1) =      -1.725976 [THz] =     -57.572352 [cm-1]
     freq (    2) =      -1.725976 [THz] =     -57.572351 [cm-1]
     freq (    3) =      -1.151652 [THz] =     -38.414986 [cm-1]
     freq (    4) =      -1.151652 [THz] =     -38.414985 [cm-1]
     freq (    5) =       1.465800 [THz] =      48.893808 [cm-1]
     freq (    6) =      46.759539 [THz] =    1559.730325 [cm-1]
 **************************************************************************

     Mode symmetry, D_4h(4/mmm) point group:

     freq (  1 -  1) =        -57.6  [cm-1]   -->   ?
     freq (  2 -  2) =        -57.6  [cm-1]   -->   ?
     freq (  3 -  3) =        -38.4  [cm-1]   -->   ?
     freq (  4 -  4) =        -38.4  [cm-1]   -->   ?
     freq (  5 -  5) =         48.9  [cm-1]   -->   ?
     freq (  6 -  6) =       1559.7  [cm-1]   --> A_1g X_1  M_1   R  
 
     PHONON       :    52.59s CPU        56.99s WALL

     INITIALIZATION: 
     phq_setup    :      1.54s CPU      1.55s WALL (       1 calls)
     phq_init     :      3.78s CPU      3.85s WALL (       1 calls)
 
     phq_init     :      3.78s CPU      3.85s WALL (       1 calls)
     init_vloc    :      0.01s CPU      0.01s WALL (       1 calls)
     init_us_1    :      0.22s CPU      0.22s WALL (       1 calls)
     newd         :      0.06s CPU      0.07s WALL (       1 calls)
     dvanqq       :      1.55s CPU      1.55s WALL (       1 calls)
     drho         :      1.14s CPU      1.20s WALL (       1 calls)
     cmpt_qdipol  :      0.00s CPU      0.00s WALL (       1 calls)
 
     DIELECTRIC CONSTANT AND EFFECTIVE CHARGES:
     solve_e      :     23.05s CPU     25.22s WALL (       1 calls)
     dielec       :      0.00s CPU      0.00s WALL (       1 calls)
     zstar_eu     :      2.30s CPU      2.40s WALL (       1 calls)
 
     DYNAMICAL MATRIX:
     dynmat0      :      0.09s CPU      0.09s WALL (       1 calls)
     phqscf       :     20.70s CPU     22.67s WALL (       1 calls)
     dynmatrix    :      0.00s CPU      0.00s WALL (       1 calls)
 
     phqscf       :     20.70s CPU     22.67s WALL (       1 calls)
     solve_linter :     20.53s CPU     22.46s WALL (       3 calls)
     drhodv       :      0.04s CPU      0.04s WALL (       3 calls)
     add_zstar_ue :      0.01s CPU      0.01s WALL (       3 calls)
     add_zstar_us :      0.11s CPU      0.12s WALL (       3 calls)
 
     dynmat0      :      0.09s CPU      0.09s WALL (       1 calls)
     dynmat_us    :      0.05s CPU      0.05s WALL (       1 calls)
     d2ionq       :      0.03s CPU      0.03s WALL (       1 calls)
 
     dynmat_us    :      0.05s CPU      0.05s WALL (       1 calls)
     addusdynmat  :      0.00s CPU      0.00s WALL (       1 calls)
 
     phqscf       :     20.70s CPU     22.67s WALL (       1 calls)
     solve_linter :     20.53s CPU     22.46s WALL (       3 calls)
 
     solve_linter :     20.53s CPU     22.46s WALL (       3 calls)
     dvqpsi_us    :      0.20s CPU      0.21s WALL (      18 calls)
     ortho        :      0.10s CPU      0.11s WALL (     128 calls)
     cgsolve      :     11.66s CPU     11.74s WALL (     128 calls)
     incdrhoscf   :      1.19s CPU      1.21s WALL (     128 calls)
     addusddens   :      4.45s CPU      4.51s WALL (      34 calls)
     vpsifft      :      0.40s CPU      0.41s WALL (      50 calls)
     dv_of_drho   :     13.59s CPU     14.38s WALL (      64 calls)
     mix_pot      :      2.01s CPU      3.71s WALL (      39 calls)
     newdq        :      6.91s CPU      7.10s WALL (      39 calls)
     adddvscf     :      0.05s CPU      0.04s WALL (     110 calls)
     drhodvus     :      0.02s CPU      0.05s WALL (       3 calls)
 
     dvqpsi_us    :      0.20s CPU      0.21s WALL (      18 calls)
     dvqpsi_us_on :      0.01s CPU      0.01s WALL (      18 calls)
 
     cgsolve      :     11.66s CPU     11.74s WALL (     128 calls)
     ch_psi       :     11.37s CPU     11.47s WALL (    1323 calls)
 
     ch_psi       :     11.37s CPU     11.47s WALL (    1323 calls)
     last         :      0.99s CPU      1.02s WALL (    1323 calls)
 
     add_vuspsi   :      0.27s CPU      0.28s WALL (    1323 calls)
 
     incdrhoscf   :      1.19s CPU      1.21s WALL (     128 calls)
     addusdbec    :      0.04s CPU      0.04s WALL (     140 calls)
 
     drhodvus     :      0.02s CPU      0.05s WALL (       3 calls)
 
      General routines
     calbec       :      0.87s CPU      0.80s WALL (    3402 calls)
     fft          :      8.27s CPU      8.43s WALL (    1899 calls)
     ffts         :      0.29s CPU      0.30s WALL (     306 calls)
     fftw         :      9.36s CPU      9.41s WALL (   16304 calls)
     davcio       :      0.20s CPU      1.78s WALL (     974 calls)
     write_rec    :      0.05s CPU      1.18s WALL (      42 calls)
 
 
     PHONON       :    52.59s CPU        56.99s WALL

 
   This run was terminated on:  11: 8:43  25Aug2016            

=------------------------------------------------------------------------------=
   JOB DONE.
=------------------------------------------------------------------------------=
