
     Program MATDYN v.6.beta (svn rev. 12834M) starts on 25Aug2016 at 11: 5:13 

     This program is part of the open-source Quantum ESPRESSO suite
     for quantum simulation of materials; please cite
         "P. Giannozzi et al., J. Phys.:Condens. Matter 21 395502 (2009);
          URL http://www.quantum-espresso.org", 
     in publications or presentations arising from this work. More details at
     http://www.quantum-espresso.org/quote
 
           HOST :    x86_64-pc-linux-gnu
           ARCH :    x86_64
             CC :    icc
            CPP :    cpp
            F90 :    ifort
            F77 :    ifort
         DFLAGS :    -D__INTEL -D__FFTW -D__MPI -D__PARA -D__HDF5
      BLAS LIBS :    -lmkl_intel_lp64  -lmkl_sequential -lmkl_core
    LAPACK LIBS :    
       FFT LIBS :    
      MASS LIBS :    

     Parallel version (MPI), running on     2 processors
     R & G space division:  proc/nbgrp/npool/nimage =       2
     Message from routine matdyn:
     Z* not found in file Al444.fc, TO-LO splitting at q=0 will be absent!
     A direction for q was not specified:TO-LO splitting will be absent
     Message from routine matdyn:
     Z* not found in file Al444.fc, TO-LO splitting at q=0 will be absent!
     A direction for q was not specified:TO-LO splitting will be absent
 
  Gamma lines for all modes [Rydberg] 
 
 Broadening   0.0050
       1
-0.000000000-0.000000000-0.000000000
       2
-0.000000736-0.000000736-0.000000871
       3
-0.000001470-0.000001470-0.000001817
       4
-0.000000734-0.000000734-0.000001033
       5
 0.000000002 0.000000002 0.000000036
       6
-0.000001331-0.000001331-0.000001121
       7
 0.000000348 0.000000348 0.000000007
       8
-0.000001321-0.000002103-0.000000808
       9
 0.000000096 0.000000406 0.000000801
      10
 0.000001717 0.000002028 0.000001950
      11
 0.000000000 0.000000000 0.000000001
      12
 0.000001747 0.000001747 0.000002090
      13
 0.000000011 0.000000011 0.000000443
      14
-0.000001700-0.000001700-0.000001484
      15
-0.000000000-0.000000000-0.000000000
      16
-0.000001462-0.000001666-0.000000721
      17
-0.000003298-0.000002813 0.000006324
      18
-0.000002560-0.000002024 0.000017378
      19
 0.000000213 0.000000930 0.000037292
 Broadening   0.0100
       1
 0.000000000-0.000000000-0.000000000
       2
-0.000000142-0.000000142-0.000001209
       3
-0.000000139-0.000000139-0.000002832
       4
 0.000000298 0.000000298-0.000001847
       5
 0.000000567 0.000000567 0.000001509
       6
 0.000001191 0.000001191 0.000005422
       7
 0.000003690 0.000003690 0.000004881
       8
 0.000001033 0.000000295 0.000007355
       9
 0.000000984 0.000003654 0.000008065
      10
 0.000001886 0.000004312 0.000005163
      11
 0.000000301 0.000000301 0.000001873
      12
 0.000001836 0.000001836 0.000006262
      13
 0.000000139 0.000000139 0.000005061
      14
-0.000001557-0.000001557 0.000000741
      15
 0.000000000-0.000000000-0.000000000
      16
-0.000000356-0.000002060 0.000000243
      17
-0.000004053-0.000000971 0.000008121
      18
-0.000003078-0.000000939 0.000018442
      19
 0.000000841 0.000001875 0.000034906
 Broadening   0.0150
       1
-0.000000000 0.000000000-0.000000000
       2
 0.000000073 0.000000073-0.000000904
       3
 0.000000365 0.000000365-0.000002111
       4
 0.000000808 0.000000808-0.000001096
       5
 0.000001108 0.000001108 0.000002513
       6
 0.000002110 0.000002110 0.000009709
       7
 0.000003910 0.000003910 0.000011348
       8
 0.000001881 0.000001660 0.000011620
       9
 0.000001413 0.000004020 0.000010319
      10
 0.000001814 0.000003746 0.000007616
      11
 0.000000783 0.000000783 0.000005337
      12
 0.000001470 0.000001470 0.000007276
      13
 0.000000191 0.000000191 0.000005611
      14
-0.000001026-0.000001026 0.000001213
      15
-0.000000000 0.000000000-0.000000000
      16
 0.000000091-0.000001521 0.000000463
      17
-0.000003009 0.000000204 0.000006265
      18
-0.000002297 0.000000398 0.000013367
      19
 0.000000777 0.000002942 0.000024537
 Broadening   0.0200
       1
 0.000000000-0.000000000-0.000000000
       2
 0.000000097 0.000000097-0.000000617
       3
 0.000000393 0.000000393-0.000001341
       4
 0.000000823 0.000000823-0.000000190
       5
 0.000001265 0.000001265 0.000003304
       6
 0.000002471 0.000002471 0.000010908
       7
 0.000003638 0.000003638 0.000012965
       8
 0.000002173 0.000002225 0.000012448
       9
 0.000001614 0.000003700 0.000010965
      10
 0.000001733 0.000003116 0.000008802
      11
 0.000000968 0.000000968 0.000007096
      12
 0.000001227 0.000001227 0.000007270
      13
 0.000000221 0.000000221 0.000005285
      14
-0.000000708-0.000000708 0.000001189
      15
 0.000000000-0.000000000-0.000000000
      16
 0.000000167-0.000001102 0.000000485
      17
-0.000002179 0.000000542 0.000004914
      18
-0.000001655 0.000000931 0.000010124
      19
 0.000000649 0.000003502 0.000018427
 Broadening   0.0250
       1
-0.000000000-0.000000000-0.000000000
       2
 0.000000071 0.000000071-0.000000319
       3
 0.000000314 0.000000314-0.000000455
       4
 0.000000752 0.000000752 0.000001029
       5
 0.000001336 0.000001336 0.000004367
       6
 0.000002667 0.000002667 0.000010912
       7
 0.000003440 0.000003440 0.000012333
       8
 0.000002315 0.000002516 0.000011956
       9
 0.000001669 0.000003388 0.000010953
      10
 0.000001622 0.000002707 0.000009416
      11
 0.000001057 0.000001057 0.000008178
      12
 0.000001057 0.000001057 0.000007247
      13
 0.000000243 0.000000243 0.000005079
      14
-0.000000494-0.000000494 0.000001187
      15
-0.000000000-0.000000000-0.000000000
      16
 0.000000129-0.000000778 0.000000571
      17
-0.000001516 0.000000521 0.000004338
      18
-0.000001120 0.000000990 0.000008499
      19
 0.000000552 0.000003598 0.000015087
 Broadening   0.0300
       1
-0.000000000-0.000000000 0.000000000
       2
 0.000000042 0.000000042-0.000000054
       3
 0.000000244 0.000000244 0.000000369
       4
 0.000000716 0.000000716 0.000002223
       5
 0.000001422 0.000001422 0.000005436
       6
 0.000002790 0.000002790 0.000010706
       7
 0.000003298 0.000003298 0.000011352
       8
 0.000002397 0.000002713 0.000011317
       9
 0.000001699 0.000003212 0.000010862
      10
 0.000001544 0.000002472 0.000009814
      11
 0.000001112 0.000001112 0.000008887
      12
 0.000000948 0.000000948 0.000007373
      13
 0.000000263 0.000000263 0.000005124
      14
-0.000000349-0.000000349 0.000001276
      15
-0.000000000-0.000000000 0.000000000
      16
 0.000000078-0.000000546 0.000000715
      17
-0.000001039 0.000000445 0.000004250
      18
-0.000000729 0.000000969 0.000007840
      19
 0.000000496 0.000003652 0.000013379
 Broadening   0.0350
       1
-0.000000000-0.000000000 0.000000000
       2
 0.000000026 0.000000026 0.000000157
       3
 0.000000217 0.000000217 0.000001034
       4
 0.000000734 0.000000734 0.000003205
       5
 0.000001524 0.000001524 0.000006336
       6
 0.000002860 0.000002860 0.000010609
       7
 0.000003185 0.000003185 0.000010692
       8
 0.000002448 0.000002860 0.000010921
       9
 0.000001734 0.000003151 0.000010866
      10
 0.000001502 0.000002342 0.000010114
      11
 0.000001147 0.000001147 0.000009357
      12
 0.000000881 0.000000881 0.000007617
      13
 0.000000282 0.000000282 0.000005354
      14
-0.000000250-0.000000250 0.000001436
      15
-0.000000000-0.000000000 0.000000000
      16
 0.000000049-0.000000393 0.000000882
      17
-0.000000727 0.000000415 0.000004409
      18
-0.000000476 0.000000988 0.000007689
      19
 0.000000465 0.000003759 0.000012557
 Broadening   0.0400
       1
-0.000000000 0.000000000 0.000000000
       2
 0.000000024 0.000000024 0.000000320
       3
 0.000000227 0.000000227 0.000001550
       4
 0.000000788 0.000000788 0.000003974
       5
 0.000001626 0.000001626 0.000007058
       6
 0.000002892 0.000002892 0.000010659
       7
 0.000003091 0.000003091 0.000010409
       8
 0.000002478 0.000002972 0.000010786
       9
 0.000001769 0.000003160 0.000010965
      10
 0.000001476 0.000002270 0.000010375
      11
 0.000001168 0.000001168 0.000009712
      12
 0.000000831 0.000000831 0.000007933
      13
 0.000000295 0.000000295 0.000005689
      14
-0.000000180-0.000000180 0.000001632
      15
-0.000000000 0.000000000 0.000000000
      16
 0.000000045-0.000000294 0.000001054
      17
-0.000000531 0.000000432 0.000004674
      18
-0.000000326 0.000001042 0.000007774
      19
 0.000000441 0.000003887 0.000012170
 Broadening   0.0450
       1
 0.000000000 0.000000000 0.000000000
       2
 0.000000032 0.000000032 0.000000447
       3
 0.000000259 0.000000259 0.000001952
       4
 0.000000856 0.000000856 0.000004571
       5
 0.000001712 0.000001712 0.000007629
       6
 0.000002898 0.000002898 0.000010797
       7
 0.000003014 0.000003014 0.000010365
       8
 0.000002496 0.000003060 0.000010819
       9
 0.000001799 0.000003204 0.000011120
      10
 0.000001453 0.000002225 0.000010606
      11
 0.000001175 0.000001175 0.000009996
      12
 0.000000785 0.000000785 0.000008275
      13
 0.000000299 0.000000299 0.000006067
      14
-0.000000128-0.000000128 0.000001842
      15
 0.000000000 0.000000000 0.000000000
      16
 0.000000059-0.000000228 0.000001218
      17
-0.000000410 0.000000477 0.000004968
      18
-0.000000243 0.000001108 0.000007950
      19
 0.000000417 0.000004002 0.000011971
 Broadening   0.0500
       1
 0.000000000 0.000000000-0.000000000
       2
 0.000000045 0.000000045 0.000000546
       3
 0.000000301 0.000000301 0.000002263
       4
 0.000000921 0.000000921 0.000005031
       5
 0.000001777 0.000001777 0.000008072
       6
 0.000002888 0.000002888 0.000010963
       7
 0.000002952 0.000002952 0.000010433
       8
 0.000002505 0.000003128 0.000010929
       9
 0.000001817 0.000003258 0.000011288
      10
 0.000001424 0.000002191 0.000010799
      11
 0.000001167 0.000001167 0.000010217
      12
 0.000000738 0.000000738 0.000008604
      13
 0.000000296 0.000000296 0.000006441
      14
-0.000000089-0.000000089 0.000002046
      15
 0.000000000 0.000000000-0.000000000
      16
 0.000000082-0.000000185 0.000001368
      17
-0.000000336 0.000000533 0.000005250
      18
-0.000000203 0.000001172 0.000008140
      19
 0.000000390 0.000004088 0.000011839
 
     MATDYN       :     0.02s CPU         0.03s WALL

 
   This run was terminated on:  11: 5:13  25Aug2016            

=------------------------------------------------------------------------------=
   JOB DONE.
=------------------------------------------------------------------------------=
