
     Program MATDYN v.5.4.0 (svn rev. 12590M) starts on 21Jul2016 at 15:57:31 

     This program is part of the open-source Quantum ESPRESSO suite
     for quantum simulation of materials; please cite
         "P. Giannozzi et al., J. Phys.:Condens. Matter 21 395502 (2009);
          URL http://www.quantum-espresso.org", 
     in publications or presentations arising from this work. More details at
     http://www.quantum-espresso.org/quote
 
           HOST :    x86_64-pc-linux-gnu
           ARCH :    x86_64
             CC :    icc
            CPP :    cpp
            F90 :    gfortran
            F77 :    gfortran
         DFLAGS :    -D__GFORTRAN -D__STD_F95 -D__DFTI -D__MPI -D__PARA -D__HDF5
      BLAS LIBS :    -lmkl_gf_lp64  -lmkl_sequential -lmkl_core
    LAPACK LIBS :    
       FFT LIBS :    
      MASS LIBS :    

     Parallel version (MPI), running on     2 processors
     R & G space division:  proc/nbgrp/npool/nimage =       2
     Message from routine matdyn:
     Z* not found in file Al444.fc, TO-LO splitting at q=0 will be absent!
     A direction for q was not specified:TO-LO splitting will be absent
     Message from routine matdyn:
     Z* not found in file Al444.fc, TO-LO splitting at q=0 will be absent!
     A direction for q was not specified:TO-LO splitting will be absent
 
  Gamma lines for all modes [Rydberg] 
 
 Broadening   0.0050
       1
 0.000000000 0.000000000 0.000000000
       2
-0.000000736-0.000000736-0.000000871
       3
-0.000001470-0.000001470-0.000001817
       4
-0.000000734-0.000000734-0.000001034
       5
 0.000000002 0.000000002 0.000000036
       6
-0.000001331-0.000001331-0.000001121
       7
 0.000000348 0.000000348 0.000000007
       8
-0.000001321-0.000002103-0.000000808
       9
 0.000000096 0.000000406 0.000000801
      10
 0.000001717 0.000002028 0.000001950
      11
 0.000000000 0.000000000 0.000000001
      12
 0.000001747 0.000001747 0.000002090
      13
 0.000000011 0.000000011 0.000000443
      14
-0.000001700-0.000001700-0.000001484
      15
 0.000000000 0.000000000 0.000000000
      16
-0.000001462-0.000001666-0.000000721
      17
-0.000003298-0.000002813 0.000006324
      18
-0.000002560-0.000002023 0.000017378
      19
 0.000000213 0.000000930 0.000037291
 Broadening   0.0100
       1
 0.000000000 0.000000000 0.000000000
       2
-0.000000138-0.000000138-0.000001220
       3
-0.000000129-0.000000129-0.000002867
       4
 0.000000310 0.000000310-0.000001907
       5
 0.000000574 0.000000574 0.000001439
       6
 0.000001190 0.000001190 0.000005394
       7
 0.000003690 0.000003690 0.000004891
       8
 0.000001032 0.000000293 0.000007352
       9
 0.000000984 0.000003656 0.000008065
      10
 0.000001887 0.000004311 0.000005186
      11
 0.000000300 0.000000300 0.000001910
      12
 0.000001836 0.000001836 0.000006275
      13
 0.000000139 0.000000139 0.000005061
      14
-0.000001558-0.000001558 0.000000737
      15
 0.000000000 0.000000000 0.000000000
      16
-0.000000349-0.000002064 0.000000236
      17
-0.000004063-0.000000957 0.000008105
      18
-0.000003087-0.000000928 0.000018427
      19
 0.000000841 0.000001875 0.000034906
 Broadening   0.0150
       1
-0.000000000-0.000000000-0.000000000
       2
 0.000000079 0.000000079-0.000000923
       3
 0.000000381 0.000000381-0.000002173
       4
 0.000000828 0.000000828-0.000001202
       5
 0.000001121 0.000001121 0.000002394
       6
 0.000002108 0.000002108 0.000009685
       7
 0.000003910 0.000003910 0.000011409
       8
 0.000001881 0.000001658 0.000011637
       9
 0.000001415 0.000004022 0.000010328
      10
 0.000001815 0.000003742 0.000007674
      11
 0.000000780 0.000000780 0.000005425
      12
 0.000001470 0.000001470 0.000007306
      13
 0.000000191 0.000000191 0.000005611
      14
-0.000001027-0.000001027 0.000001203
      15
-0.000000000-0.000000000-0.000000000
      16
 0.000000102-0.000001528 0.000000449
      17
-0.000003025 0.000000227 0.000006232
      18
-0.000002312 0.000000417 0.000013337
      19
 0.000000778 0.000002940 0.000024537
 Broadening   0.0200
       1
-0.000000000 0.000000000 0.000000000
       2
 0.000000104 0.000000104-0.000000639
       3
 0.000000411 0.000000411-0.000001415
       4
 0.000000845 0.000000845-0.000000310
       5
 0.000001278 0.000001278 0.000003178
       6
 0.000002468 0.000002468 0.000010903
       7
 0.000003638 0.000003638 0.000013056
       8
 0.000002173 0.000002214 0.000012490
       9
 0.000001617 0.000003693 0.000010992
      10
 0.000001734 0.000003108 0.000008884
      11
 0.000000965 0.000000965 0.000007219
      12
 0.000001227 0.000001227 0.000007309
      13
 0.000000221 0.000000221 0.000005282
      14
-0.000000709-0.000000709 0.000001174
      15
-0.000000000 0.000000000 0.000000000
      16
 0.000000179-0.000001110 0.000000467
      17
-0.000002196 0.000000566 0.000004874
      18
-0.000001672 0.000000949 0.000010090
      19
 0.000000650 0.000003497 0.000018427
 Broadening   0.0250
       1
-0.000000000-0.000000000-0.000000000
       2
 0.000000079 0.000000079-0.000000347
       3
 0.000000337 0.000000337-0.000000546
       4
 0.000000779 0.000000779 0.000000886
       5
 0.000001351 0.000001351 0.000004223
       6
 0.000002660 0.000002660 0.000010911
       7
 0.000003440 0.000003440 0.000012431
       8
 0.000002314 0.000002491 0.000012014
       9
 0.000001673 0.000003369 0.000010994
      10
 0.000001622 0.000002698 0.000009523
      11
 0.000001052 0.000001052 0.000008342
      12
 0.000001057 0.000001057 0.000007294
      13
 0.000000243 0.000000243 0.000005069
      14
-0.000000494-0.000000494 0.000001164
      15
-0.000000000-0.000000000-0.000000000
      16
 0.000000144-0.000000786 0.000000545
      17
-0.000001536 0.000000550 0.000004286
      18
-0.000001141 0.000001010 0.000008458
      19
 0.000000554 0.000003592 0.000015088
 Broadening   0.0300
       1
-0.000000000-0.000000000 0.000000000
       2
 0.000000053 0.000000053-0.000000091
       3
 0.000000274 0.000000274 0.000000251
       4
 0.000000751 0.000000751 0.000002041
       5
 0.000001440 0.000001440 0.000005257
       6
 0.000002777 0.000002777 0.000010695
       7
 0.000003298 0.000003298 0.000011452
       8
 0.000002395 0.000002674 0.000011382
       9
 0.000001703 0.000003182 0.000010911
      10
 0.000001544 0.000002462 0.000009942
      11
 0.000001107 0.000001107 0.000009087
      12
 0.000000949 0.000000949 0.000007422
      13
 0.000000265 0.000000265 0.000005101
      14
-0.000000348-0.000000348 0.000001243
      15
-0.000000000-0.000000000 0.000000000
      16
 0.000000097-0.000000557 0.000000680
      17
-0.000001064 0.000000480 0.000004181
      18
-0.000000755 0.000000993 0.000007787
      19
 0.000000499 0.000003649 0.000013382
 Broadening   0.0350
       1
 0.000000000-0.000000000-0.000000000
       2
 0.000000040 0.000000040 0.000000109
       3
 0.000000255 0.000000255 0.000000881
       4
 0.000000779 0.000000779 0.000002972
       5
 0.000001547 0.000001547 0.000006109
       6
 0.000002843 0.000002843 0.000010584
       7
 0.000003185 0.000003185 0.000010794
       8
 0.000002444 0.000002807 0.000010991
       9
 0.000001738 0.000003112 0.000010920
      10
 0.000001502 0.000002334 0.000010258
      11
 0.000001141 0.000001141 0.000009586
      12
 0.000000883 0.000000883 0.000007662
      13
 0.000000285 0.000000285 0.000005314
      14
-0.000000250-0.000000250 0.000001390
      15
 0.000000000-0.000000000-0.000000000
      16
 0.000000073-0.000000407 0.000000836
      17
-0.000000759 0.000000459 0.000004318
      18
-0.000000509 0.000001017 0.000007619
      19
 0.000000468 0.000003759 0.000012562
 Broadening   0.0400
       1
-0.000000000-0.000000000-0.000000000
       2
 0.000000041 0.000000041 0.000000260
       3
 0.000000274 0.000000274 0.000001360
       4
 0.000000843 0.000000843 0.000003687
       5
 0.000001654 0.000001654 0.000006778
       6
 0.000002870 0.000002870 0.000010621
       7
 0.000003091 0.000003091 0.000010516
       8
 0.000002472 0.000002904 0.000010866
       9
 0.000001773 0.000003113 0.000011027
      10
 0.000001477 0.000002262 0.000010532
      11
 0.000001161 0.000001161 0.000009965
      12
 0.000000835 0.000000835 0.000007971
      13
 0.000000300 0.000000300 0.000005629
      14
-0.000000180-0.000000180 0.000001573
      15
-0.000000000-0.000000000-0.000000000
      16
 0.000000075-0.000000310 0.000000995
      17
-0.000000571 0.000000485 0.000004559
      18
-0.000000366 0.000001078 0.000007686
      19
 0.000000445 0.000003892 0.000012177
 Broadening   0.0450
       1
 0.000000000 0.000000000 0.000000000
       2
 0.000000052 0.000000052 0.000000376
       3
 0.000000315 0.000000315 0.000001726
       4
 0.000000921 0.000000921 0.000004233
       5
 0.000001745 0.000001745 0.000007302
       6
 0.000002871 0.000002871 0.000010751
       7
 0.000003014 0.000003014 0.000010482
       8
 0.000002487 0.000002976 0.000010912
       9
 0.000001802 0.000003147 0.000011190
      10
 0.000001453 0.000002219 0.000010774
      11
 0.000001167 0.000001167 0.000010269
      12
 0.000000790 0.000000790 0.000008305
      13
 0.000000305 0.000000305 0.000005987
      14
-0.000000128-0.000000128 0.000001770
      15
 0.000000000 0.000000000 0.000000000
      16
 0.000000094-0.000000248 0.000001148
      17
-0.000000458 0.000000539 0.000004831
      18
-0.000000291 0.000001151 0.000007846
      19
 0.000000422 0.000004012 0.000011981
 Broadening   0.0500
       1
 0.000000000 0.000000000 0.000000000
       2
 0.000000067 0.000000067 0.000000466
       3
 0.000000364 0.000000364 0.000002008
       4
 0.000000994 0.000000994 0.000004651
       5
 0.000001812 0.000001812 0.000007708
       6
 0.000002857 0.000002857 0.000010914
       7
 0.000002952 0.000002952 0.000010564
       8
 0.000002494 0.000003030 0.000011036
       9
 0.000001821 0.000003192 0.000011367
      10
 0.000001425 0.000002186 0.000010975
      11
 0.000001160 0.000001160 0.000010506
      12
 0.000000746 0.000000746 0.000008627
      13
 0.000000303 0.000000303 0.000006345
      14
-0.000000089-0.000000089 0.000001964
      15
 0.000000000 0.000000000 0.000000000
      16
 0.000000121-0.000000208 0.000001288
      17
-0.000000391 0.000000604 0.000005095
      18
-0.000000257 0.000001220 0.000008024
      19
 0.000000396 0.000004103 0.000011852
 
     MATDYN       :     0.03s CPU         0.04s WALL

 
   This run was terminated on:  15:57:31  21Jul2016            

=------------------------------------------------------------------------------=
   JOB DONE.
=------------------------------------------------------------------------------=
