
     Program PWSCF v.5.4.0 (svn rev. 12782M) starts on 18Aug2016 at 16:23: 5 

     This program is part of the open-source Quantum ESPRESSO suite
     for quantum simulation of materials; please cite
         "P. Giannozzi et al., J. Phys.:Condens. Matter 21 395502 (2009);
          URL http://www.quantum-espresso.org", 
     in publications or presentations arising from this work. More details at
     http://www.quantum-espresso.org/quote
 
           HOST :    x86_64-pc-linux-gnu
           ARCH :    x86_64
             CC :    icc
            CPP :    cpp
            F90 :    ifort
            F77 :    ifort
         DFLAGS :    -D__INTEL -D__FFTW -D__MPI -D__PARA -D__HDF5
      BLAS LIBS :    -lmkl_intel_lp64  -lmkl_sequential -lmkl_core
    LAPACK LIBS :    
       FFT LIBS :    
      MASS LIBS :    

     Parallel version (MPI), running on     2 processors
     R & G space division:  proc/nbgrp/npool/nimage =       2
     Waiting for input...
     Reading input from standard input

     Current dimensions of program PWSCF are:
     Max number of different atomic species (ntypx) = 10
     Max number of k-points (npk) =  40000
     Max angular momentum in pseudopotentials (lmaxx) =  3

     IMPORTANT: XC functional enforced from input :
     Exchange-correlation      = VDW-DF ( 1  4  4  0 1 0)
     Any further DFT definition will be discarded
     Please, verify this is what you really want

               file C.pbe-rrkjus.UPF: wavefunction(s)  2S 2P renormalized

     Subspace diagonalization in iterative solution of the eigenvalue problem:
     a serial algorithm will be used

 
     Parallelization info
     --------------------
     sticks:   dense  smooth     PW     G-vecs:    dense   smooth      PW
     Min         132      93     30                 4789     2605     552
     Max         133      94     31                 4794     2606     555
     Sum         265     187     61                 9583     5211    1107
 


     bravais-lattice index     =            4
     lattice parameter (alat)  =       4.6412  a.u.
     unit-cell volume          =     236.0493 (a.u.)^3
     number of atoms/cell      =            4
     number of atomic types    =            1
     number of electrons       =        16.00
     number of Kohn-Sham states=            8
     kinetic-energy cutoff     =      30.0000  Ry
     charge density cutoff     =     180.0000  Ry
     convergence threshold     =      1.0E-08
     mixing beta               =       0.7000
     number of iterations used =            8  plain     mixing
     Exchange-correlation      = VDW-DF ( 1  4  4  0 1 0)
     nstep                     =           50


     celldm(1)=   4.641170  celldm(2)=   0.000000  celldm(3)=   2.726400
     celldm(4)=   0.000000  celldm(5)=   0.000000  celldm(6)=   0.000000

     crystal axes: (cart. coord. in units of alat)
               a(1) = (   1.000000   0.000000   0.000000 )  
               a(2) = (  -0.500000   0.866025   0.000000 )  
               a(3) = (   0.000000   0.000000   2.726400 )  

     reciprocal axes: (cart. coord. in units 2 pi/alat)
               b(1) = (  1.000000  0.577350  0.000000 )  
               b(2) = (  0.000000  1.154701  0.000000 )  
               b(3) = (  0.000000  0.000000  0.366784 )  


     PseudoPot. # 1 for C  read from file:
     /home/nvarini/espresso_hdf5/espresso/pseudo/C.pbe-rrkjus.UPF
     MD5 check sum: 00fb224312de0c5b6853bd333518df6f
     Pseudo is Ultrasoft, Zval =  4.0
     Generated by new atomic code, or converted to UPF format
     Using radial grid of  627 points,  4 beta functions with: 
                l(1) =   0
                l(2) =   0
                l(3) =   1
                l(4) =   1
     Q(r) pseudized with 0 coefficients 


     vdW kernel table read from file vdW_kernel_table
     MD5 check sum: 88c60d17101ec99b63477f765c8de84d

     atomic species   valence    mass     pseudopotential
        C              4.00    12.00000     C ( 1.00)

     24 Sym. Ops., with inversion, found (12 have fractional translation)



   Cartesian axes

     site n.     atom                  positions (alat units)
         1           C   tau(   1) = (   0.0000000   0.0000000   0.0000000  )
         2           C   tau(   2) = (   0.0000000   0.5773503   0.0000000  )
         3           C   tau(   3) = (   0.0000000   0.0000000   1.3632000  )
         4           C   tau(   4) = (   0.5000000   0.2886751   1.3632000  )

     number of k points=    12
                       cart. coord. in units 2pi/alat
        k(    1) = (   0.1250000   0.2165064   0.0458480), wk =   0.1250000
        k(    2) = (   0.1250000   0.2165064   0.1375440), wk =   0.1250000
        k(    3) = (   0.1250000   0.5051815   0.0458480), wk =   0.2500000
        k(    4) = (   0.1250000   0.5051815   0.1375440), wk =   0.2500000
        k(    5) = (   0.1250000  -0.3608439   0.0458480), wk =   0.2500000
        k(    6) = (   0.1250000  -0.3608439   0.1375440), wk =   0.2500000
        k(    7) = (   0.1250000  -0.0721688   0.0458480), wk =   0.1250000
        k(    8) = (   0.1250000  -0.0721688   0.1375440), wk =   0.1250000
        k(    9) = (   0.3750000   0.6495191   0.0458480), wk =   0.1250000
        k(   10) = (   0.3750000   0.6495191   0.1375440), wk =   0.1250000
        k(   11) = (   0.3750000  -0.2165064   0.0458480), wk =   0.1250000
        k(   12) = (   0.3750000  -0.2165064   0.1375440), wk =   0.1250000

     Dense  grid:     9583 G-vectors     FFT dimensions: (  20,  20,  60)

     Smooth grid:     5211 G-vectors     FFT dimensions: (  18,  18,  45)

     Estimated max dynamical RAM per process >       3.76Mb

     Estimated total allocated dynamical RAM >       7.52Mb

     Initial potential from superposition of free atoms

     starting charge   15.99979, renormalised to   16.00000


     %%%%%%%%%%%%%%%%%%%%%%%%%%%%%%%%%%%%%%%%%%%%%%%%%%%%%%%%%%%%%%%%%%%%%%%%
     %                                                                      %
     % You are using vdW-DF, which was implemented by the Thonhauser group. %
     % Please cite the following two papers that made this development      %
     % possible and the two reviews that describe the various versions:     %
     %                                                                      %
     %   T. Thonhauser et al., PRL 115, 136402 (2015).                      %
     %   T. Thonhauser et al., PRB 76, 125112 (2007).                       %
     %   K. Berland et al., Rep. Prog. Phys. 78, 066501 (2015).             %
     %   D.C. Langreth et al., J. Phys.: Condens. Matter 21, 084203 (2009). %
     %                                                                      %
     %                                                                      %
     % If you are calculating the stress with vdW-DF, please also cite:     %
     %                                                                      %
     %   R. Sabatini et al., J. Phys.: Condens. Matter 24, 424209 (2012).   %
     %                                                                      %
     %%%%%%%%%%%%%%%%%%%%%%%%%%%%%%%%%%%%%%%%%%%%%%%%%%%%%%%%%%%%%%%%%%%%%%%%


     Starting wfc are   16 randomized atomic wfcs

     total cpu time spent up to now is        0.4 secs

     per-process dynamical memory:    17.9 Mb

     Self-consistent Calculation

     iteration #  1     ecut=    30.00 Ry     beta=0.70
     Davidson diagonalization with overlap
     ethr =  1.00E-02,  avg # of iterations =  2.0

     total cpu time spent up to now is        0.6 secs

     total energy              =     -45.81462987 Ry
     Harris-Foulkes estimate   =     -46.06084525 Ry
     estimated scf accuracy    <       0.43951243 Ry

     iteration #  2     ecut=    30.00 Ry     beta=0.70
     Davidson diagonalization with overlap
     ethr =  2.75E-03,  avg # of iterations =  2.0

     total cpu time spent up to now is        0.7 secs

     total energy              =     -45.88018931 Ry
     Harris-Foulkes estimate   =     -45.87893901 Ry
     estimated scf accuracy    <       0.00557650 Ry

     iteration #  3     ecut=    30.00 Ry     beta=0.70
     Davidson diagonalization with overlap
     ethr =  3.49E-05,  avg # of iterations =  2.2

     total cpu time spent up to now is        0.9 secs

     total energy              =     -45.88102378 Ry
     Harris-Foulkes estimate   =     -45.88082419 Ry
     estimated scf accuracy    <       0.00041549 Ry

     iteration #  4     ecut=    30.00 Ry     beta=0.70
     Davidson diagonalization with overlap
     ethr =  2.60E-06,  avg # of iterations =  1.8

     total cpu time spent up to now is        1.0 secs

     total energy              =     -45.88107377 Ry
     Harris-Foulkes estimate   =     -45.88107131 Ry
     estimated scf accuracy    <       0.00000284 Ry

     iteration #  5     ecut=    30.00 Ry     beta=0.70
     Davidson diagonalization with overlap
     ethr =  1.78E-08,  avg # of iterations =  3.1

     total cpu time spent up to now is        1.2 secs

     total energy              =     -45.88107687 Ry
     Harris-Foulkes estimate   =     -45.88107683 Ry
     estimated scf accuracy    <       0.00000012 Ry

     iteration #  6     ecut=    30.00 Ry     beta=0.70
     Davidson diagonalization with overlap
     ethr =  7.26E-10,  avg # of iterations =  2.8

     total cpu time spent up to now is        1.3 secs

     total energy              =     -45.88107689 Ry
     Harris-Foulkes estimate   =     -45.88107690 Ry
     estimated scf accuracy    <       0.00000002 Ry

     iteration #  7     ecut=    30.00 Ry     beta=0.70
     Davidson diagonalization with overlap
     ethr =  1.45E-10,  avg # of iterations =  2.7

     total cpu time spent up to now is        1.5 secs

     End of self-consistent calculation

          k = 0.1250 0.2165 0.0458 (   646 PWs)   bands (ev):

   -11.5265 -11.2692  -0.0598   0.6943   0.7336   1.6561   1.7746   1.8020

          k = 0.1250 0.2165 0.1375 (   654 PWs)   bands (ev):

   -11.4541 -11.3477   0.3857   0.7056   0.7230   1.0882   1.7819   1.7933

          k = 0.1250 0.5052 0.0458 (   662 PWs)   bands (ev):

    -8.0012  -7.8097  -5.0824  -4.9391  -0.5106  -0.4386   3.9428   5.0425

          k = 0.1250 0.5052 0.1375 (   662 PWs)   bands (ev):

    -7.9466  -7.8673  -5.0417  -4.9824  -0.4899  -0.4600   4.2594   4.7178

          k = 0.1250-0.3608 0.0458 (   661 PWs)   bands (ev):

   -10.0764  -9.8438  -2.0915  -1.9927   0.2592   0.3190   1.6680   3.2327

          k = 0.1250-0.3608 0.1375 (   657 PWs)   bands (ev):

   -10.0106  -9.9144  -2.0630  -2.0220   0.2763   0.3011   2.0796   2.7209

          k = 0.1250-0.0722 0.0458 (   639 PWs)   bands (ev):

   -12.2634 -11.9937  -0.9538   0.8226   2.4752   2.5179   3.1443   3.1753

          k = 0.1250-0.0722 0.1375 (   635 PWs)   bands (ev):

   -12.1876 -12.0760  -0.4938   0.2318   2.4877   2.5054   3.1534   3.1663

          k = 0.3750 0.6495 0.0458 (   647 PWs)   bands (ev):

    -6.3967  -6.3032  -5.4650  -5.4279  -2.7782  -2.6883   5.6601   6.2663

          k = 0.3750 0.6495 0.1375 (   662 PWs)   bands (ev):

    -6.3662  -6.3271  -5.4594  -5.4437  -2.7533  -2.7160   5.8918   6.1558

          k = 0.3750-0.2165 0.0458 (   658 PWs)   bands (ev):

    -9.3653  -9.1452  -3.7809  -3.6461   0.8438   0.8918   2.4637   3.8972

          k = 0.3750-0.2165 0.1375 (   656 PWs)   bands (ev):

    -9.3030  -9.2118  -3.7423  -3.6865   0.8578   0.8777   2.8479   3.4375

     highest occupied level (ev):     6.2663

!    total energy              =     -45.88107690 Ry
     Harris-Foulkes estimate   =     -45.88107690 Ry
     estimated scf accuracy    <          5.9E-09 Ry

     The total energy is the sum of the following terms:

     one-electron contribution =     -11.17969672 Ry
     hartree contribution      =      13.63790215 Ry
     xc contribution           =     -14.43014837 Ry
     ewald contribution        =     -33.90913395 Ry

     convergence has been achieved in   7 iterations

     Forces acting on atoms (Ry/au):

     atom    1 type  1   force =    -0.00000000    0.00000000    0.00000000
     atom    2 type  1   force =     0.00000000    0.00000000    0.00000000
     atom    3 type  1   force =    -0.00000000    0.00000000    0.00000000
     atom    4 type  1   force =     0.00000000    0.00000000    0.00000000

     Total force =     0.000000     Total SCF correction =     0.000000


     entering subroutine stress ...

          total   stress  (Ry/bohr**3)                   (kbar)     P=   34.83
   0.00028290  -0.00000000   0.00000000         41.62     -0.00      0.00
  -0.00000000   0.00028290   0.00000000         -0.00     41.62      0.00
   0.00000000  -0.00000000   0.00014460          0.00     -0.00     21.27


     BFGS Geometry Optimization

     number of scf cycles    =   1
     number of bfgs steps    =   0

     enthalpy new            =     -45.8810768957 Ry

     new trust radius        =       0.0111082939 bohr
     new conv_thr            =       0.0000000100 Ry

     new unit-cell volume =    236.90259 a.u.^3 (    35.10534 Ang^3 )

CELL_PARAMETERS (alat=  4.64117000)
   1.000000000   0.000000000   0.000000000
  -0.500000000   0.866025404   0.000000000
   0.000000000   0.000000000   2.736256112

ATOMIC_POSITIONS (alat)
C       -0.000000000   0.000000000   0.000000000
C        0.000000000   0.577350269   0.000000000
C       -0.000000000   0.000000000   1.368128056
C        0.500000000   0.288675135   1.368128056



     Writing output data file graphite.save
     NEW-OLD atomic charge density approx. for the potential
     extrapolated charge   16.05763, renormalised to   16.00000

     total cpu time spent up to now is        2.4 secs

     per-process dynamical memory:    19.9 Mb

     Self-consistent Calculation

     iteration #  1     ecut=    30.00 Ry     beta=0.70
     Davidson diagonalization with overlap
     ethr =  1.00E-06,  avg # of iterations =  2.0

     total cpu time spent up to now is        2.5 secs

     total energy              =     -45.88106026 Ry
     Harris-Foulkes estimate   =     -45.84912704 Ry
     estimated scf accuracy    <       0.00005361 Ry

     iteration #  2     ecut=    30.00 Ry     beta=0.70
     Davidson diagonalization with overlap
     ethr =  3.35E-07,  avg # of iterations =  3.2

     total cpu time spent up to now is        2.7 secs

     total energy              =     -45.88120220 Ry
     Harris-Foulkes estimate   =     -45.88123188 Ry
     estimated scf accuracy    <       0.00007933 Ry

     iteration #  3     ecut=    30.00 Ry     beta=0.70
     Davidson diagonalization with overlap
     ethr =  3.35E-07,  avg # of iterations =  1.9

     total cpu time spent up to now is        2.8 secs

     total energy              =     -45.88119004 Ry
     Harris-Foulkes estimate   =     -45.88120514 Ry
     estimated scf accuracy    <       0.00002235 Ry

     iteration #  4     ecut=    30.00 Ry     beta=0.70
     Davidson diagonalization with overlap
     ethr =  1.40E-07,  avg # of iterations =  2.0

     total cpu time spent up to now is        3.0 secs

     total energy              =     -45.88119459 Ry
     Harris-Foulkes estimate   =     -45.88119515 Ry
     estimated scf accuracy    <       0.00000088 Ry

     iteration #  5     ecut=    30.00 Ry     beta=0.70
     Davidson diagonalization with overlap
     ethr =  5.53E-09,  avg # of iterations =  2.4

     total cpu time spent up to now is        3.2 secs

     End of self-consistent calculation

          k = 0.1250 0.2165 0.0457 (   646 PWs)   bands (ev):

   -11.5641 -11.3140  -0.0876   0.6534   0.6914   1.5979   1.7334   1.7598

          k = 0.1250 0.2165 0.1370 (   654 PWs)   bands (ev):

   -11.4937 -11.3902   0.3504   0.6643   0.6811   1.0405   1.7405   1.7515

          k = 0.1250 0.5052 0.0457 (   662 PWs)   bands (ev):

    -8.0398  -7.8538  -5.1217  -4.9826  -0.5510  -0.4814   3.9123   4.9920

          k = 0.1250 0.5052 0.1370 (   662 PWs)   bands (ev):

    -7.9867  -7.9097  -5.0822  -5.0246  -0.5309  -0.5021   4.2229   4.6728

          k = 0.1250-0.3608 0.0457 (   661 PWs)   bands (ev):

   -10.1144  -9.8883  -2.1315  -2.0357   0.2185   0.2765   1.6396   3.1760

          k = 0.1250-0.3608 0.1370 (   657 PWs)   bands (ev):

   -10.0504  -9.9569  -2.1038  -2.0641   0.2351   0.2591   2.0441   2.6740

          k = 0.1250-0.0722 0.0457 (   639 PWs)   bands (ev):

   -12.3009 -12.0386  -0.9813   0.7638   2.4343   2.4756   3.1031   3.1331

          k = 0.1250-0.0722 0.1370 (   635 PWs)   bands (ev):

   -12.2272 -12.1186  -0.5291   0.1840   2.4463   2.4634   3.1119   3.1243

          k = 0.3750 0.6495 0.0457 (   647 PWs)   bands (ev):

    -6.4363  -6.3456  -5.5062  -5.4700  -2.8183  -2.7311   5.6281   6.2230

          k = 0.3750 0.6495 0.1370 (   662 PWs)   bands (ev):

    -6.4068  -6.3690  -5.5005  -5.4852  -2.7941  -2.7580   5.8544   6.1130

          k = 0.3750-0.2165 0.0457 (   658 PWs)   bands (ev):

    -9.4035  -9.1896  -3.8203  -3.6895   0.8029   0.8493   2.4347   3.8422

          k = 0.3750-0.2165 0.1370 (   656 PWs)   bands (ev):

    -9.3429  -9.2543  -3.7828  -3.7287   0.8165   0.8357   2.8121   3.3911

     highest occupied level (ev):     6.2230

!    total energy              =     -45.88119477 Ry
     Harris-Foulkes estimate   =     -45.88119477 Ry
     estimated scf accuracy    <          2.8E-09 Ry

     The total energy is the sum of the following terms:

     one-electron contribution =     -11.46084022 Ry
     hartree contribution      =      13.75380110 Ry
     xc contribution           =     -14.42943974 Ry
     ewald contribution        =     -33.74471591 Ry

     convergence has been achieved in   5 iterations

     Forces acting on atoms (Ry/au):

     atom    1 type  1   force =    -0.00000000    0.00000000    0.00000000
     atom    2 type  1   force =     0.00000000    0.00000000    0.00000000
     atom    3 type  1   force =    -0.00000000    0.00000000    0.00000000
     atom    4 type  1   force =    -0.00000000    0.00000000    0.00000000

     Total force =     0.000000     Total SCF correction =     0.000000


     entering subroutine stress ...

          total   stress  (Ry/bohr**3)                   (kbar)     P=   34.21
   0.00028282   0.00000000   0.00000000         41.60      0.00      0.00
   0.00000000   0.00028282  -0.00000000          0.00     41.60     -0.00
   0.00000000  -0.00000000   0.00013210          0.00     -0.00     19.43


     number of scf cycles    =   2
     number of bfgs steps    =   1

     enthalpy old            =     -45.8810768957 Ry
     enthalpy new            =     -45.8811947694 Ry

     CASE: enthalpy_new < enthalpy_old


     WARNING: bfgs curvature condition failed, Theta= 0.876
     new trust radius        =       0.0166324044 bohr
     new conv_thr            =            1.0E-10 Ry

     new unit-cell volume =    238.18259 a.u.^3 (    35.29502 Ang^3 )

CELL_PARAMETERS (alat=  4.64117000)
   1.000000000   0.000000000   0.000000000
  -0.500000000   0.866025404   0.000000000
   0.000000000   0.000000000   2.751040280

ATOMIC_POSITIONS (alat)
C       -0.000000000   0.000000000   0.000000000
C        0.000000000   0.577350269   0.000000000
C       -0.000000000   0.000000000   1.375520140
C        0.500000000   0.288675135   1.375520140



     Writing output data file graphite.save
     NEW-OLD atomic charge density approx. for the potential
     extrapolated charge   16.08598, renormalised to   16.00000

     total cpu time spent up to now is        4.0 secs

     per-process dynamical memory:    20.2 Mb

     Self-consistent Calculation

     iteration #  1     ecut=    30.00 Ry     beta=0.70
     Davidson diagonalization with overlap
     ethr =  1.00E-06,  avg # of iterations =  2.7

     total cpu time spent up to now is        4.2 secs

     total energy              =     -45.88104587 Ry
     Harris-Foulkes estimate   =     -45.83159885 Ry
     estimated scf accuracy    <       0.00012206 Ry

     iteration #  2     ecut=    30.00 Ry     beta=0.70
     Davidson diagonalization with overlap
     ethr =  7.63E-07,  avg # of iterations =  3.2

     total cpu time spent up to now is        4.3 secs

     total energy              =     -45.88136801 Ry
     Harris-Foulkes estimate   =     -45.88143574 Ry
     estimated scf accuracy    <       0.00018085 Ry

     iteration #  3     ecut=    30.00 Ry     beta=0.70
     Davidson diagonalization with overlap
     ethr =  7.63E-07,  avg # of iterations =  1.9

     total cpu time spent up to now is        4.5 secs

     total energy              =     -45.88134041 Ry
     Harris-Foulkes estimate   =     -45.88137476 Ry
     estimated scf accuracy    <       0.00005089 Ry

     iteration #  4     ecut=    30.00 Ry     beta=0.70
     Davidson diagonalization with overlap
     ethr =  3.18E-07,  avg # of iterations =  2.0

     total cpu time spent up to now is        4.6 secs

     total energy              =     -45.88135073 Ry
     Harris-Foulkes estimate   =     -45.88135192 Ry
     estimated scf accuracy    <       0.00000186 Ry

     iteration #  5     ecut=    30.00 Ry     beta=0.70
     Davidson diagonalization with overlap
     ethr =  1.16E-08,  avg # of iterations =  2.4

     total cpu time spent up to now is        4.8 secs

     total energy              =     -45.88135112 Ry
     Harris-Foulkes estimate   =     -45.88135112 Ry
     estimated scf accuracy    <          3.9E-09 Ry

     iteration #  6     ecut=    30.00 Ry     beta=0.70
     Davidson diagonalization with overlap
     ethr =  2.45E-11,  avg # of iterations =  3.2

     total cpu time spent up to now is        5.0 secs

     total energy              =     -45.88135112 Ry
     Harris-Foulkes estimate   =     -45.88135112 Ry
     estimated scf accuracy    <          3.4E-09 Ry

     iteration #  7     ecut=    30.00 Ry     beta=0.70
     Davidson diagonalization with overlap
     ethr =  2.12E-11,  avg # of iterations =  1.8

     total cpu time spent up to now is        5.1 secs

     total energy              =     -45.88135112 Ry
     Harris-Foulkes estimate   =     -45.88135112 Ry
     estimated scf accuracy    <          8.1E-10 Ry

     iteration #  8     ecut=    30.00 Ry     beta=0.70
     Davidson diagonalization with overlap
     ethr =  5.06E-12,  avg # of iterations =  2.6

     total cpu time spent up to now is        5.2 secs

     End of self-consistent calculation

          k = 0.1250 0.2165 0.0454 (   646 PWs)   bands (ev):

   -11.6200 -11.3801  -0.1289   0.5929   0.6290   1.5119   1.6724   1.6976

          k = 0.1250 0.2165 0.1363 (   654 PWs)   bands (ev):

   -11.5524 -11.4531   0.2980   0.6033   0.6192   0.9701   1.6792   1.6897

          k = 0.1250 0.5052 0.0454 (   662 PWs)   bands (ev):

    -8.0969  -7.9188  -5.1799  -5.0469  -0.6108  -0.5445   3.8669   4.9172

          k = 0.1250 0.5052 0.1363 (   662 PWs)   bands (ev):

    -8.0460  -7.9723  -5.1420  -5.0869  -0.5917  -0.5642   4.1688   4.6062

          k = 0.1250-0.3608 0.0454 (   661 PWs)   bands (ev):

   -10.1707  -9.9540  -2.1906  -2.0992   0.1585   0.2136   1.5973   3.0924

          k = 0.1250-0.3608 0.1363 (   657 PWs)   bands (ev):

   -10.1094 -10.0197  -2.1642  -2.1263   0.1743   0.1971   1.9914   2.6045

          k = 0.1250-0.0722 0.0454 (   639 PWs)   bands (ev):

   -12.3566 -12.1049  -1.0223   0.6768   2.3737   2.4130   3.0423   3.0707

          k = 0.1250-0.0722 0.1363 (   635 PWs)   bands (ev):

   -12.2857 -12.1815  -0.5814   0.1132   2.3852   2.4014   3.0506   3.0624

          k = 0.3750 0.6495 0.0454 (   647 PWs)   bands (ev):

    -6.4951  -6.4084  -5.5670  -5.5323  -2.8776  -2.7944   5.5803   6.1588

          k = 0.3750 0.6495 0.1363 (   662 PWs)   bands (ev):

    -6.4670  -6.4309  -5.5614  -5.5467  -2.8545  -2.8200   5.7987   6.0496

          k = 0.3750-0.2165 0.0454 (   658 PWs)   bands (ev):

    -9.4601  -9.2551  -3.8787  -3.7537   0.7426   0.7866   2.3916   3.7610

          k = 0.3750-0.2165 0.1363 (   656 PWs)   bands (ev):

    -9.4019  -9.3170  -3.8428  -3.7911   0.7554   0.7737   2.7590   3.3224

     highest occupied level (ev):     6.1588

!    total energy              =     -45.88135112 Ry
     Harris-Foulkes estimate   =     -45.88135112 Ry
     estimated scf accuracy    <          3.3E-11 Ry

     The total energy is the sum of the following terms:

     one-electron contribution =     -11.88301767 Ry
     hartree contribution      =      13.92813328 Ry
     xc contribution           =     -14.42837310 Ry
     ewald contribution        =     -33.49809363 Ry

     convergence has been achieved in   8 iterations

     Forces acting on atoms (Ry/au):

     atom    1 type  1   force =    -0.00000000   -0.00000000    0.00000000
     atom    2 type  1   force =    -0.00000000    0.00000000    0.00000000
     atom    3 type  1   force =     0.00000000   -0.00000000    0.00000000
     atom    4 type  1   force =     0.00000000   -0.00000000    0.00000000

     Total force =     0.000000     Total SCF correction =     0.000000


     entering subroutine stress ...

          total   stress  (Ry/bohr**3)                   (kbar)     P=   33.23
   0.00028249  -0.00000000   0.00000000         41.56     -0.00      0.00
  -0.00000000   0.00028249   0.00000000         -0.00     41.56      0.00
   0.00000000   0.00000000   0.00011264          0.00      0.00     16.57


     number of scf cycles    =   3
     number of bfgs steps    =   2

     enthalpy old            =     -45.8811947694 Ry
     enthalpy new            =     -45.8813511200 Ry

     CASE: enthalpy_new < enthalpy_old

     new trust radius        =       0.0248814790 bohr
     new conv_thr            =            1.0E-10 Ry

     new unit-cell volume =    240.10259 a.u.^3 (    35.57953 Ang^3 )

CELL_PARAMETERS (alat=  4.64117000)
   1.000000000   0.000000000   0.000000000
  -0.500000000   0.866025404   0.000000000
   0.000000000   0.000000000   2.773216532

ATOMIC_POSITIONS (alat)
C       -0.000000000   0.000000000   0.000000000
C        0.000000000   0.577350269   0.000000000
C       -0.000000000   0.000000000   1.386608266
C        0.500000000   0.288675135   1.386608266



     Writing output data file graphite.save
     NEW-OLD atomic charge density approx. for the potential
     extrapolated charge   16.12794, renormalised to   16.00000

     total cpu time spent up to now is        6.1 secs

     per-process dynamical memory:    20.5 Mb

     Self-consistent Calculation

     iteration #  1     ecut=    30.00 Ry     beta=0.70
     Davidson diagonalization with overlap
     ethr =  1.00E-06,  avg # of iterations =  3.0

     total cpu time spent up to now is        6.3 secs

     total energy              =     -45.88084696 Ry
     Harris-Foulkes estimate   =     -45.80322575 Ry
     estimated scf accuracy    <       0.00027730 Ry

     iteration #  2     ecut=    30.00 Ry     beta=0.70
     Davidson diagonalization with overlap
     ethr =  1.73E-06,  avg # of iterations =  3.2

     total cpu time spent up to now is        6.4 secs

     total energy              =     -45.88157997 Ry
     Harris-Foulkes estimate   =     -45.88173506 Ry
     estimated scf accuracy    <       0.00041385 Ry

     iteration #  3     ecut=    30.00 Ry     beta=0.70
     Davidson diagonalization with overlap
     ethr =  1.73E-06,  avg # of iterations =  2.0

     total cpu time spent up to now is        6.6 secs

     total energy              =     -45.88151712 Ry
     Harris-Foulkes estimate   =     -45.88159557 Ry
     estimated scf accuracy    <       0.00011637 Ry

     iteration #  4     ecut=    30.00 Ry     beta=0.70
     Davidson diagonalization with overlap
     ethr =  7.27E-07,  avg # of iterations =  2.0

     total cpu time spent up to now is        6.7 secs

     total energy              =     -45.88154058 Ry
     Harris-Foulkes estimate   =     -45.88154297 Ry
     estimated scf accuracy    <       0.00000372 Ry

     iteration #  5     ecut=    30.00 Ry     beta=0.70
     Davidson diagonalization with overlap
     ethr =  2.33E-08,  avg # of iterations =  2.4

     total cpu time spent up to now is        6.9 secs

     total energy              =     -45.88154142 Ry
     Harris-Foulkes estimate   =     -45.88154142 Ry
     estimated scf accuracy    <       0.00000004 Ry

     iteration #  6     ecut=    30.00 Ry     beta=0.70
     Davidson diagonalization with overlap
     ethr =  2.47E-10,  avg # of iterations =  1.9

     total cpu time spent up to now is        7.0 secs

     total energy              =     -45.88154141 Ry
     Harris-Foulkes estimate   =     -45.88154142 Ry
     estimated scf accuracy    <       0.00000004 Ry

     iteration #  7     ecut=    30.00 Ry     beta=0.70
     Davidson diagonalization with overlap
     ethr =  2.47E-10,  avg # of iterations =  2.6

     total cpu time spent up to now is        7.2 secs

     total energy              =     -45.88154141 Ry
     Harris-Foulkes estimate   =     -45.88154141 Ry
     estimated scf accuracy    <          6.3E-09 Ry

     iteration #  8     ecut=    30.00 Ry     beta=0.70
     Davidson diagonalization with overlap
     ethr =  3.91E-11,  avg # of iterations =  1.0

     total cpu time spent up to now is        7.3 secs

     total energy              =     -45.88154141 Ry
     Harris-Foulkes estimate   =     -45.88154141 Ry
     estimated scf accuracy    <          4.3E-09 Ry

     iteration #  9     ecut=    30.00 Ry     beta=0.70
     Davidson diagonalization with overlap
     ethr =  2.72E-11,  avg # of iterations =  2.7

     total cpu time spent up to now is        7.5 secs

     total energy              =     -45.88154141 Ry
     Harris-Foulkes estimate   =     -45.88154141 Ry
     estimated scf accuracy    <          3.1E-10 Ry

     iteration # 10     ecut=    30.00 Ry     beta=0.70
     Davidson diagonalization with overlap
     ethr =  1.95E-12,  avg # of iterations =  1.7

     total cpu time spent up to now is        7.6 secs

     total energy              =     -45.88154141 Ry
     Harris-Foulkes estimate   =     -45.88154141 Ry
     estimated scf accuracy    <          1.4E-10 Ry

     iteration # 11     ecut=    30.00 Ry     beta=0.70
     Davidson diagonalization with overlap
     ethr =  8.76E-13,  avg # of iterations =  2.2

     total cpu time spent up to now is        7.7 secs

     End of self-consistent calculation

          k = 0.1250 0.2165 0.0451 (   646 PWs)   bands (ev):

   -11.7032 -11.4779  -0.1905   0.5031   0.5366   1.3853   1.5820   1.6053

          k = 0.1250 0.2165 0.1352 (   654 PWs)   bands (ev):

   -11.6395 -11.5463   0.2203   0.5127   0.5275   0.8661   1.5883   1.5980

          k = 0.1250 0.5052 0.0451 (   662 PWs)   bands (ev):

    -8.1819  -8.0151  -5.2664  -5.1420  -0.6996  -0.6380   3.7992   4.8067

          k = 0.1250 0.5052 0.1352 (   662 PWs)   bands (ev):

    -8.1342  -8.0651  -5.2309  -5.1794  -0.6818  -0.6563   4.0883   4.5077

          k = 0.1250-0.3608 0.0451 (   661 PWs)   bands (ev):

   -10.2546 -10.0513  -2.2785  -2.1932   0.0692   0.1204   1.5342   2.9693

          k = 0.1250-0.3608 0.1352 (   657 PWs)   bands (ev):

   -10.1969 -10.1127  -2.2538  -2.2185   0.0839   0.1051   1.9132   2.5019

          k = 0.1250-0.0722 0.0451 (   639 PWs)   bands (ev):

   -12.4394 -12.2029  -1.0834   0.5489   2.2838   2.3202   2.9519   2.9781

          k = 0.1250-0.0722 0.1352 (   635 PWs)   bands (ev):

   -12.3727 -12.2748  -0.6591   0.0086   2.2944   2.3095   2.9596   2.9705

          k = 0.3750 0.6495 0.0451 (   647 PWs)   bands (ev):

    -6.5825  -6.5014  -5.6573  -5.6246  -2.9658  -2.8881   5.5090   6.0635

          k = 0.3750 0.6495 0.1352 (   662 PWs)   bands (ev):

    -6.5564  -6.5226  -5.6517  -5.6379  -2.9442  -2.9119   5.7161   5.9558

          k = 0.3750-0.2165 0.0451 (   658 PWs)   bands (ev):

    -9.5443  -9.3520  -3.9654  -3.8487   0.6529   0.6936   2.3272   3.6413

          k = 0.3750-0.2165 0.1352 (   656 PWs)   bands (ev):

    -9.4896  -9.4100  -3.9319  -3.8836   0.6648   0.6817   2.6802   3.2210

     highest occupied level (ev):     6.0635

!    total energy              =     -45.88154141 Ry
     Harris-Foulkes estimate   =     -45.88154141 Ry
     estimated scf accuracy    <          1.5E-11 Ry

     The total energy is the sum of the following terms:

     one-electron contribution =     -12.51763265 Ry
     hartree contribution      =      14.19112180 Ry
     xc contribution           =     -14.42686022 Ry
     ewald contribution        =     -33.12817034 Ry

     convergence has been achieved in  11 iterations

     Forces acting on atoms (Ry/au):

     atom    1 type  1   force =     0.00000000    0.00000000    0.00000000
     atom    2 type  1   force =     0.00000000   -0.00000000    0.00000000
     atom    3 type  1   force =     0.00000000    0.00000000    0.00000000
     atom    4 type  1   force =     0.00000000    0.00000000    0.00000000

     Total force =     0.000000     Total SCF correction =     0.000000


     entering subroutine stress ...

          total   stress  (Ry/bohr**3)                   (kbar)     P=   31.84
   0.00028181  -0.00000000  -0.00000000         41.46     -0.00     -0.00
  -0.00000000   0.00028181   0.00000000         -0.00     41.46      0.00
  -0.00000000   0.00000000   0.00008564         -0.00      0.00     12.60


     number of scf cycles    =   4
     number of bfgs steps    =   3

     enthalpy old            =     -45.8813511200 Ry
     enthalpy new            =     -45.8815414132 Ry

     CASE: enthalpy_new < enthalpy_old

     new trust radius        =       0.0371726939 bohr
     new conv_thr            =            1.0E-10 Ry

     new unit-cell volume =    242.98259 a.u.^3 (    36.00630 Ang^3 )

CELL_PARAMETERS (alat=  4.64117000)
   1.000000000   0.000000000   0.000000000
  -0.500000000   0.866025404   0.000000000
   0.000000000   0.000000000   2.806480909

ATOMIC_POSITIONS (alat)
C       -0.000000000   0.000000000   0.000000000
C        0.000000000   0.577350269   0.000000000
C       -0.000000000   0.000000000   1.403240455
C        0.500000000   0.288675135   1.403240455



     Writing output data file graphite.save
     NEW-OLD atomic charge density approx. for the potential
     extrapolated charge   16.18964, renormalised to   16.00000

     total cpu time spent up to now is        8.6 secs

     per-process dynamical memory:    20.7 Mb

     Self-consistent Calculation

     iteration #  1     ecut=    30.00 Ry     beta=0.70
     Davidson diagonalization with overlap
     ethr =  1.00E-06,  avg # of iterations =  3.1

     total cpu time spent up to now is        8.8 secs

     total energy              =     -45.88014035 Ry
     Harris-Foulkes estimate   =     -45.75605308 Ry
     estimated scf accuracy    <       0.00063479 Ry

     iteration #  2     ecut=    30.00 Ry     beta=0.70
     Davidson diagonalization with overlap
     ethr =  3.97E-06,  avg # of iterations =  3.2

     total cpu time spent up to now is        8.9 secs

     total energy              =     -45.88182154 Ry
     Harris-Foulkes estimate   =     -45.88218034 Ry
     estimated scf accuracy    <       0.00095562 Ry

     iteration #  3     ecut=    30.00 Ry     beta=0.70
     Davidson diagonalization with overlap
     ethr =  3.97E-06,  avg # of iterations =  2.0

     total cpu time spent up to now is        9.1 secs

     total energy              =     -45.88167724 Ry
     Harris-Foulkes estimate   =     -45.88185809 Ry
     estimated scf accuracy    <       0.00026843 Ry

     iteration #  4     ecut=    30.00 Ry     beta=0.70
     Davidson diagonalization with overlap
     ethr =  1.68E-06,  avg # of iterations =  2.0

     total cpu time spent up to now is        9.2 secs

     total energy              =     -45.88173116 Ry
     Harris-Foulkes estimate   =     -45.88173575 Ry
     estimated scf accuracy    <       0.00000737 Ry

     iteration #  5     ecut=    30.00 Ry     beta=0.70
     Davidson diagonalization with overlap
     ethr =  4.61E-08,  avg # of iterations =  2.5

     total cpu time spent up to now is        9.4 secs

     total energy              =     -45.88173277 Ry
     Harris-Foulkes estimate   =     -45.88173278 Ry
     estimated scf accuracy    <       0.00000006 Ry

     iteration #  6     ecut=    30.00 Ry     beta=0.70
     Davidson diagonalization with overlap
     ethr =  3.67E-10,  avg # of iterations =  2.3

     total cpu time spent up to now is        9.5 secs

     total energy              =     -45.88173277 Ry
     Harris-Foulkes estimate   =     -45.88173278 Ry
     estimated scf accuracy    <       0.00000004 Ry

     iteration #  7     ecut=    30.00 Ry     beta=0.70
     Davidson diagonalization with overlap
     ethr =  2.25E-10,  avg # of iterations =  2.8

     total cpu time spent up to now is        9.7 secs

     total energy              =     -45.88173278 Ry
     Harris-Foulkes estimate   =     -45.88173278 Ry
     estimated scf accuracy    <       0.00000002 Ry

     iteration #  8     ecut=    30.00 Ry     beta=0.70
     Davidson diagonalization with overlap
     ethr =  1.21E-10,  avg # of iterations =  1.0

     total cpu time spent up to now is        9.8 secs

     total energy              =     -45.88173277 Ry
     Harris-Foulkes estimate   =     -45.88173278 Ry
     estimated scf accuracy    <       0.00000001 Ry

     iteration #  9     ecut=    30.00 Ry     beta=0.70
     Davidson diagonalization with overlap
     ethr =  6.51E-11,  avg # of iterations =  2.5

     total cpu time spent up to now is       10.0 secs

     total energy              =     -45.88173278 Ry
     Harris-Foulkes estimate   =     -45.88173278 Ry
     estimated scf accuracy    <          2.5E-10 Ry

     iteration # 10     ecut=    30.00 Ry     beta=0.70
     Davidson diagonalization with overlap
     ethr =  1.54E-12,  avg # of iterations =  2.0

     total cpu time spent up to now is       10.1 secs

     total energy              =     -45.88173278 Ry
     Harris-Foulkes estimate   =     -45.88173278 Ry
     estimated scf accuracy    <          2.9E-10 Ry

     iteration # 11     ecut=    30.00 Ry     beta=0.70
     Davidson diagonalization with overlap
     ethr =  1.54E-12,  avg # of iterations =  2.4

     total cpu time spent up to now is       10.3 secs

     End of self-consistent calculation

          k = 0.1250 0.2165 0.0445 (   646 PWs)   bands (ev):

   -11.8262 -11.6211  -0.2822   0.3708   0.4007   1.2009   1.4489   1.4697

          k = 0.1250 0.2165 0.1336 (   654 PWs)   bands (ev):

   -11.7681 -11.6832   0.1057   0.3794   0.3925   0.7138   1.4546   1.4632

          k = 0.1250 0.5052 0.0445 (   662 PWs)   bands (ev):

    -8.3075  -8.1562  -5.3940  -5.2816  -0.8304  -0.7753   3.6986   4.6449

          k = 0.1250 0.5052 0.1336 (   662 PWs)   bands (ev):

    -8.2641  -8.2015  -5.3619  -5.3153  -0.8145  -0.7916   3.9697   4.3632

          k = 0.1250-0.3608 0.0445 (   661 PWs)   bands (ev):

   -10.3786 -10.1938  -2.4081  -2.3313  -0.0622  -0.0164   1.4404   2.7899

          k = 0.1250-0.3608 0.1336 (   657 PWs)   bands (ev):

   -10.3260 -10.2495  -2.3858  -2.3540  -0.0490  -0.0301   1.7977   2.3516

          k = 0.1250-0.0722 0.0445 (   639 PWs)   bands (ev):

   -12.5620 -12.3466  -1.1744   0.3627   2.1515   2.1839   2.8190   2.8422

          k = 0.1250-0.0722 0.1336 (   635 PWs)   bands (ev):

   -12.5010 -12.4118  -0.7736  -0.1443   2.1609   2.1744   2.8258   2.8355

          k = 0.3750 0.6495 0.0445 (   647 PWs)   bands (ev):

    -6.7114  -6.6381  -5.7900  -5.7603  -3.0957  -3.0257   5.4029   5.9230

          k = 0.3750 0.6495 0.1336 (   662 PWs)   bands (ev):

    -6.6880  -6.6575  -5.7846  -5.7721  -3.0762  -3.0471   5.5941   5.8179

          k = 0.3750-0.2165 0.0445 (   658 PWs)   bands (ev):

    -9.6688  -9.4941  -4.0934  -3.9880   0.5209   0.5571   2.2315   3.4666

          k = 0.3750-0.2165 0.1336 (   656 PWs)   bands (ev):

    -9.6190  -9.5467  -4.0631  -4.0195   0.5315   0.5464   2.5639   3.0724

     highest occupied level (ev):     5.9230

!    total energy              =     -45.88173278 Ry
     Harris-Foulkes estimate   =     -45.88173278 Ry
     estimated scf accuracy    <          1.0E-11 Ry

     The total energy is the sum of the following terms:

     one-electron contribution =     -13.47236150 Ry
     hartree contribution      =      14.58866368 Ry
     xc contribution           =     -14.42472853 Ry
     ewald contribution        =     -32.57330643 Ry

     convergence has been achieved in  11 iterations

     Forces acting on atoms (Ry/au):

     atom    1 type  1   force =     0.00000000    0.00000000    0.00000000
     atom    2 type  1   force =     0.00000000    0.00000000    0.00000000
     atom    3 type  1   force =     0.00000000    0.00000000    0.00000000
     atom    4 type  1   force =     0.00000000    0.00000000    0.00000000

     Total force =     0.000000     Total SCF correction =     0.000000


     entering subroutine stress ...

          total   stress  (Ry/bohr**3)                   (kbar)     P=   29.83
   0.00028038   0.00000000   0.00000000         41.25      0.00      0.00
   0.00000000   0.00028038   0.00000000          0.00     41.25      0.00
  -0.00000000   0.00000000   0.00004761         -0.00      0.00      7.00


     number of scf cycles    =   5
     number of bfgs steps    =   4

     enthalpy old            =     -45.8815414132 Ry
     enthalpy new            =     -45.8817327753 Ry

     CASE: enthalpy_new < enthalpy_old

     new trust radius        =       0.0462497324 bohr
     new conv_thr            =            1.0E-10 Ry

     new unit-cell volume =    246.58727 a.u.^3 (    36.54046 Ang^3 )

CELL_PARAMETERS (alat=  4.64117000)
   1.000000000   0.000000000   0.000000000
  -0.500000000   0.866025404   0.000000000
   0.000000000   0.000000000   2.848115447

ATOMIC_POSITIONS (alat)
C       -0.000000000   0.000000000   0.000000000
C        0.000000000   0.577350269   0.000000000
C        0.000000000   0.000000000   1.424057724
C        0.500000000   0.288675135   1.424057724



     Writing output data file graphite.save
     NEW-OLD atomic charge density approx. for the potential
     extrapolated charge   16.23389, renormalised to   16.00000

     total cpu time spent up to now is       11.1 secs

     per-process dynamical memory:    20.7 Mb

     Self-consistent Calculation

     iteration #  1     ecut=    30.00 Ry     beta=0.70
     Davidson diagonalization with overlap
     ethr =  1.00E-06,  avg # of iterations =  3.2

     total cpu time spent up to now is       11.3 secs

     total energy              =     -45.87928835 Ry
     Harris-Foulkes estimate   =     -45.71193079 Ry
     estimated scf accuracy    <       0.00101384 Ry

     iteration #  2     ecut=    30.00 Ry     beta=0.70
     Davidson diagonalization with overlap
     ethr =  6.34E-06,  avg # of iterations =  3.2

     total cpu time spent up to now is       11.5 secs

     total energy              =     -45.88196548 Ry
     Harris-Foulkes estimate   =     -45.88254235 Ry
     estimated scf accuracy    <       0.00153047 Ry

     iteration #  3     ecut=    30.00 Ry     beta=0.70
     Davidson diagonalization with overlap
     ethr =  6.34E-06,  avg # of iterations =  2.0

     total cpu time spent up to now is       11.6 secs

     total energy              =     -45.88173538 Ry
     Harris-Foulkes estimate   =     -45.88202436 Ry
     estimated scf accuracy    <       0.00042852 Ry

     iteration #  4     ecut=    30.00 Ry     beta=0.70
     Davidson diagonalization with overlap
     ethr =  2.68E-06,  avg # of iterations =  2.0

     total cpu time spent up to now is       11.8 secs

     total energy              =     -45.88182138 Ry
     Harris-Foulkes estimate   =     -45.88182800 Ry
     estimated scf accuracy    <       0.00001051 Ry

     iteration #  5     ecut=    30.00 Ry     beta=0.70
     Davidson diagonalization with overlap
     ethr =  6.57E-08,  avg # of iterations =  2.6

     total cpu time spent up to now is       11.9 secs

     total energy              =     -45.88182385 Ry
     Harris-Foulkes estimate   =     -45.88182386 Ry
     estimated scf accuracy    <       0.00000008 Ry

     iteration #  6     ecut=    30.00 Ry     beta=0.70
     Davidson diagonalization with overlap
     ethr =  5.27E-10,  avg # of iterations =  2.2

     total cpu time spent up to now is       12.1 secs

     total energy              =     -45.88182385 Ry
     Harris-Foulkes estimate   =     -45.88182387 Ry
     estimated scf accuracy    <       0.00000007 Ry

     iteration #  7     ecut=    30.00 Ry     beta=0.70
     Davidson diagonalization with overlap
     ethr =  4.53E-10,  avg # of iterations =  2.6

     total cpu time spent up to now is       12.2 secs

     total energy              =     -45.88182386 Ry
     Harris-Foulkes estimate   =     -45.88182387 Ry
     estimated scf accuracy    <       0.00000003 Ry

     iteration #  8     ecut=    30.00 Ry     beta=0.70
     Davidson diagonalization with overlap
     ethr =  2.02E-10,  avg # of iterations =  1.8

     total cpu time spent up to now is       12.4 secs

     total energy              =     -45.88182386 Ry
     Harris-Foulkes estimate   =     -45.88182386 Ry
     estimated scf accuracy    <          3.8E-09 Ry

     iteration #  9     ecut=    30.00 Ry     beta=0.70
     Davidson diagonalization with overlap
     ethr =  2.40E-11,  avg # of iterations =  2.8

     total cpu time spent up to now is       12.5 secs

     total energy              =     -45.88182386 Ry
     Harris-Foulkes estimate   =     -45.88182386 Ry
     estimated scf accuracy    <          8.0E-10 Ry

     iteration # 10     ecut=    30.00 Ry     beta=0.70
     Davidson diagonalization with overlap
     ethr =  5.00E-12,  avg # of iterations =  1.3

     total cpu time spent up to now is       12.7 secs

     total energy              =     -45.88182386 Ry
     Harris-Foulkes estimate   =     -45.88182386 Ry
     estimated scf accuracy    <          3.9E-10 Ry

     iteration # 11     ecut=    30.00 Ry     beta=0.70
     Davidson diagonalization with overlap
     ethr =  2.47E-12,  avg # of iterations =  3.0

     total cpu time spent up to now is       12.8 secs

     End of self-consistent calculation

          k = 0.1250 0.2165 0.0439 (   646 PWs)   bands (ev):

   -11.9772 -11.7950  -0.3957   0.2093   0.2353   0.9791   1.2866   1.3046

          k = 0.1250 0.2165 0.1317 (   654 PWs)   bands (ev):

   -11.9254 -11.8499  -0.0346   0.2167   0.2281   0.5294   1.2915   1.2990

          k = 0.1250 0.5052 0.0439 (   662 PWs)   bands (ev):

    -8.4614  -8.3276  -5.5503  -5.4512  -0.9903  -0.9423   3.5743   4.4489

          k = 0.1250 0.5052 0.1317 (   662 PWs)   bands (ev):

    -8.4230  -8.3676  -5.5218  -5.4808  -0.9764  -0.9565   3.8244   4.1878

          k = 0.1250-0.3608 0.0439 (   661 PWs)   bands (ev):

   -10.5306 -10.3667  -2.5665  -2.4993  -0.2227  -0.1829   1.3244   2.5737

          k = 0.1250-0.3608 0.1317 (   657 PWs)   bands (ev):

   -10.4839 -10.4160  -2.5470  -2.5191  -0.2113  -0.1947   1.6564   2.1695

          k = 0.1250-0.0722 0.0439 (   639 PWs)   bands (ev):

   -12.7124 -12.5208  -1.2868   0.1387   1.9899   2.0180   2.6567   2.6767

          k = 0.1250-0.0722 0.1317 (   635 PWs)   bands (ev):

   -12.6579 -12.5787  -0.9139  -0.3295   1.9981   2.0097   2.6627   2.6710

          k = 0.3750 0.6495 0.0439 (   647 PWs)   bands (ev):

    -6.8692  -6.8046  -5.9518  -5.9254  -3.2545  -3.1931   5.2717   5.7512

          k = 0.3750 0.6495 0.1317 (   662 PWs)   bands (ev):

    -6.8488  -6.8220  -5.9467  -5.9356  -3.2373  -3.2118   5.4448   5.6500

          k = 0.3750-0.2165 0.0439 (   658 PWs)   bands (ev):

    -9.8214  -9.6666  -4.2501  -4.1574   0.3597   0.3909   2.1132   3.2560

          k = 0.3750-0.2165 0.1317 (   656 PWs)   bands (ev):

    -9.7772  -9.7130  -4.2233  -4.1850   0.3688   0.3817   2.4215   2.8921

     highest occupied level (ev):     5.7512

!    total energy              =     -45.88182386 Ry
     Harris-Foulkes estimate   =     -45.88182386 Ry
     estimated scf accuracy    <          3.3E-11 Ry

     The total energy is the sum of the following terms:

     one-electron contribution =     -14.67195015 Ry
     hartree contribution      =      15.09125926 Ry
     xc contribution           =     -14.42227665 Ry
     ewald contribution        =     -31.87885632 Ry

     convergence has been achieved in  11 iterations

     Forces acting on atoms (Ry/au):

     atom    1 type  1   force =    -0.00000000    0.00000000    0.00000000
     atom    2 type  1   force =    -0.00000000    0.00000000    0.00000000
     atom    3 type  1   force =     0.00000000   -0.00000000    0.00000000
     atom    4 type  1   force =    -0.00000000   -0.00000000    0.00000000

     Total force =     0.000000     Total SCF correction =     0.000000


     entering subroutine stress ...

          total   stress  (Ry/bohr**3)                   (kbar)     P=   27.43
   0.00027793  -0.00000000   0.00000000         40.89     -0.00      0.00
  -0.00000000   0.00027793   0.00000000         -0.00     40.89      0.00
  -0.00000000   0.00000000   0.00000347         -0.00      0.00      0.51


     number of scf cycles    =   6
     number of bfgs steps    =   5

     enthalpy old            =     -45.8817327753 Ry
     enthalpy new            =     -45.8818238576 Ry

     CASE: enthalpy_new < enthalpy_old

     new trust radius        =       0.0036063276 bohr
     new conv_thr            =            1.0E-10 Ry

     new unit-cell volume =    246.87042 a.u.^3 (    36.58242 Ang^3 )

CELL_PARAMETERS (alat=  4.64117000)
   1.000000000   0.000000000   0.000000000
  -0.500000000   0.866025404   0.000000000
   0.000000000   0.000000000   2.851385897

ATOMIC_POSITIONS (alat)
C       -0.000000000   0.000000000   0.000000000
C        0.000000000   0.577350269   0.000000000
C        0.000000000   0.000000000   1.425692948
C        0.500000000   0.288675135   1.425692948



     Writing output data file graphite.save
     NEW-OLD atomic charge density approx. for the potential
     extrapolated charge   16.01835, renormalised to   16.00000

     total cpu time spent up to now is       13.7 secs

     per-process dynamical memory:    20.7 Mb

     Self-consistent Calculation

     iteration #  1     ecut=    30.00 Ry     beta=0.70
     Davidson diagonalization with overlap
     ethr =  1.00E-06,  avg # of iterations =  2.0

     Threshold (ethr) on eigenvalues was too large:
     Diagonalizing with lowered threshold

     Davidson diagonalization with overlap
     ethr =  3.95E-08,  avg # of iterations =  1.0

     total cpu time spent up to now is       13.9 secs

     total energy              =     -45.88180882 Ry
     Harris-Foulkes estimate   =     -45.86845093 Ry
     estimated scf accuracy    <       0.00000640 Ry

     iteration #  2     ecut=    30.00 Ry     beta=0.70
     Davidson diagonalization with overlap
     ethr =  4.00E-08,  avg # of iterations =  3.2

     total cpu time spent up to now is       14.1 secs

     total energy              =     -45.88182517 Ry
     Harris-Foulkes estimate   =     -45.88182869 Ry
     estimated scf accuracy    <       0.00000924 Ry

     iteration #  3     ecut=    30.00 Ry     beta=0.70
     Davidson diagonalization with overlap
     ethr =  4.00E-08,  avg # of iterations =  2.0

     total cpu time spent up to now is       14.2 secs

     total energy              =     -45.88182382 Ry
     Harris-Foulkes estimate   =     -45.88182553 Ry
     estimated scf accuracy    <       0.00000252 Ry

     iteration #  4     ecut=    30.00 Ry     beta=0.70
     Davidson diagonalization with overlap
     ethr =  1.57E-08,  avg # of iterations =  2.0

     total cpu time spent up to now is       14.4 secs

     total energy              =     -45.88182434 Ry
     Harris-Foulkes estimate   =     -45.88182440 Ry
     estimated scf accuracy    <       0.00000009 Ry

     iteration #  5     ecut=    30.00 Ry     beta=0.70
     Davidson diagonalization with overlap
     ethr =  5.79E-10,  avg # of iterations =  2.5

     total cpu time spent up to now is       14.5 secs

     total energy              =     -45.88182436 Ry
     Harris-Foulkes estimate   =     -45.88182436 Ry
     estimated scf accuracy    <          5.4E-10 Ry

     iteration #  6     ecut=    30.00 Ry     beta=0.70
     Davidson diagonalization with overlap
     ethr =  3.35E-12,  avg # of iterations =  2.4

     total cpu time spent up to now is       14.7 secs

     total energy              =     -45.88182436 Ry
     Harris-Foulkes estimate   =     -45.88182436 Ry
     estimated scf accuracy    <          2.0E-10 Ry

     iteration #  7     ecut=    30.00 Ry     beta=0.70
     Davidson diagonalization with overlap
     ethr =  1.28E-12,  avg # of iterations =  2.8

     total cpu time spent up to now is       14.8 secs

     End of self-consistent calculation

          k = 0.1250 0.2165 0.0438 (   646 PWs)   bands (ev):

   -11.9889 -11.8084  -0.4045   0.1968   0.2226   0.9621   1.2740   1.2918

          k = 0.1250 0.2165 0.1315 (   654 PWs)   bands (ev):

   -11.9376 -11.8628  -0.0455   0.2042   0.2154   0.5152   1.2789   1.2863

          k = 0.1250 0.5052 0.0438 (   662 PWs)   bands (ev):

    -8.4734  -8.3408  -5.5624  -5.4643  -1.0027  -0.9552   3.5646   4.4338

          k = 0.1250 0.5052 0.1315 (   662 PWs)   bands (ev):

    -8.4353  -8.3804  -5.5342  -5.4936  -0.9890  -0.9692   3.8131   4.1743

          k = 0.1250-0.3608 0.0438 (   661 PWs)   bands (ev):

   -10.5425 -10.3800  -2.5788  -2.5122  -0.2352  -0.1957   1.3154   2.5571

          k = 0.1250-0.3608 0.1315 (   657 PWs)   bands (ev):

   -10.4961 -10.4288  -2.5595  -2.5319  -0.2238  -0.2075   1.6454   2.1554

          k = 0.1250-0.0722 0.0438 (   639 PWs)   bands (ev):

   -12.7241 -12.5342  -1.2956   0.1215   1.9774   2.0052   2.6442   2.6639

          k = 0.1250-0.0722 0.1315 (   635 PWs)   bands (ev):

   -12.6701 -12.5916  -0.9247  -0.3438   1.9855   1.9970   2.6500   2.6583

          k = 0.3750 0.6495 0.0438 (   647 PWs)   bands (ev):

    -6.8815  -6.8175  -5.9644  -5.9382  -3.2668  -3.2060   5.2615   5.7379

          k = 0.3750 0.6495 0.1315 (   662 PWs)   bands (ev):

    -6.8613  -6.8347  -5.9592  -5.9483  -3.2498  -3.2245   5.4332   5.6371

          k = 0.3750-0.2165 0.0438 (   658 PWs)   bands (ev):

    -9.8333  -9.6799  -4.2622  -4.1704   0.3472   0.3780   2.1040   3.2398

          k = 0.3750-0.2165 0.1315 (   656 PWs)   bands (ev):

    -9.7894  -9.7259  -4.2357  -4.1978   0.3562   0.3690   2.4105   2.8783

     highest occupied level (ev):     5.7379

!    total energy              =     -45.88182436 Ry
     Harris-Foulkes estimate   =     -45.88182436 Ry
     estimated scf accuracy    <          9.1E-11 Ry

     The total energy is the sum of the following terms:

     one-electron contribution =     -14.76639223 Ry
     hartree contribution      =      15.13096917 Ry
     xc contribution           =     -14.42209362 Ry
     ewald contribution        =     -31.82430767 Ry

     convergence has been achieved in   7 iterations

     Forces acting on atoms (Ry/au):

     atom    1 type  1   force =     0.00000000   -0.00000000    0.00000000
     atom    2 type  1   force =    -0.00000000    0.00000000    0.00000000
     atom    3 type  1   force =     0.00000000    0.00000000    0.00000000
     atom    4 type  1   force =    -0.00000000   -0.00000000    0.00000000

     Total force =     0.000000     Total SCF correction =     0.000000


     entering subroutine stress ...

          total   stress  (Ry/bohr**3)                   (kbar)     P=   27.24
   0.00027772  -0.00000000   0.00000000         40.85     -0.00      0.00
  -0.00000000   0.00027772   0.00000000         -0.00     40.85      0.00
   0.00000000   0.00000000   0.00000013          0.00      0.00      0.02


     bfgs converged in   7 scf cycles and   6 bfgs steps
     (criteria: energy <  1.0E-04, force <  1.0E-03, cell <  5.0E-01)

     End of BFGS Geometry Optimization

     Final enthalpy =     -45.8818243586 Ry
Begin final coordinates
     new unit-cell volume =    246.87042 a.u.^3 (    36.58242 Ang^3 )

CELL_PARAMETERS (alat=  4.64117000)
   1.000000000   0.000000000   0.000000000
  -0.500000000   0.866025404   0.000000000
   0.000000000   0.000000000   2.851385897

ATOMIC_POSITIONS (alat)
C       -0.000000000   0.000000000   0.000000000
C        0.000000000   0.577350269   0.000000000
C        0.000000000   0.000000000   1.425692948
C        0.500000000   0.288675135   1.425692948
End final coordinates



     A final scf calculation at the relaxed structure.
     The G-vectors are recalculated for the final unit cell
     Results may differ from those at the preceding step.
 
     Parallelization info
     --------------------
     sticks:   dense  smooth     PW     G-vecs:    dense   smooth      PW
     Min         132      93     30                 5007     2744     570
     Max         133      94     31                 5010     2745     573
     Sum         265     187     61                10017     5489    1143
 


     bravais-lattice index     =            4
     lattice parameter (alat)  =       4.6412  a.u.
     unit-cell volume          =     246.8704 (a.u.)^3
     number of atoms/cell      =            4
     number of atomic types    =            1
     number of electrons       =        16.00
     number of Kohn-Sham states=            8
     kinetic-energy cutoff     =      30.0000  Ry
     charge density cutoff     =     180.0000  Ry
     convergence threshold     =      1.0E-10
     mixing beta               =       0.7000
     number of iterations used =            8  plain     mixing
     Exchange-correlation      = VDW-DF ( 1  4  4  0 1 0)

     celldm(1)=   4.641170  celldm(2)=   0.000000  celldm(3)=   2.726400
     celldm(4)=   0.000000  celldm(5)=   0.000000  celldm(6)=   0.000000

     crystal axes: (cart. coord. in units of alat)
               a(1) = (   1.000000   0.000000   0.000000 )  
               a(2) = (  -0.500000   0.866025   0.000000 )  
               a(3) = (   0.000000   0.000000   2.851386 )  

     reciprocal axes: (cart. coord. in units 2 pi/alat)
               b(1) = (  1.000000  0.577350  0.000000 )  
               b(2) = ( -0.000000  1.154701  0.000000 )  
               b(3) = (  0.000000  0.000000  0.350707 )  


     PseudoPot. # 1 for C  read from file:
     /home/nvarini/espresso_hdf5/espresso/pseudo/C.pbe-rrkjus.UPF
     MD5 check sum: 00fb224312de0c5b6853bd333518df6f
     Pseudo is Ultrasoft, Zval =  4.0
     Generated by new atomic code, or converted to UPF format
     Using radial grid of  627 points,  4 beta functions with: 
                l(1) =   0
                l(2) =   0
                l(3) =   1
                l(4) =   1
     Q(r) pseudized with 0 coefficients 


     vdW kernel table read from file vdW_kernel_table
     MD5 check sum: 88c60d17101ec99b63477f765c8de84d

     atomic species   valence    mass     pseudopotential
        C              4.00    12.00000     C ( 1.00)

     24 Sym. Ops., with inversion, found (12 have fractional translation)



   Cartesian axes

     site n.     atom                  positions (alat units)
         1           C   tau(   1) = (  -0.0000000   0.0000000   0.0000000  )
         2           C   tau(   2) = (   0.0000000   0.5773503   0.0000000  )
         3           C   tau(   3) = (   0.0000000   0.0000000   1.4256929  )
         4           C   tau(   4) = (   0.5000000   0.2886751   1.4256929  )

     number of k points=    12
                       cart. coord. in units 2pi/alat
        k(    1) = (   0.1250000   0.2165064   0.0438383), wk =   0.1250000
        k(    2) = (   0.1250000   0.2165064   0.1315150), wk =   0.1250000
        k(    3) = (   0.1250000   0.5051815   0.0438383), wk =   0.2500000
        k(    4) = (   0.1250000   0.5051815   0.1315150), wk =   0.2500000
        k(    5) = (   0.1250000  -0.3608439   0.0438383), wk =   0.2500000
        k(    6) = (   0.1250000  -0.3608439   0.1315150), wk =   0.2500000
        k(    7) = (   0.1250000  -0.0721688   0.0438383), wk =   0.1250000
        k(    8) = (   0.1250000  -0.0721688   0.1315150), wk =   0.1250000
        k(    9) = (   0.3750000   0.6495191   0.0438383), wk =   0.1250000
        k(   10) = (   0.3750000   0.6495191   0.1315150), wk =   0.1250000
        k(   11) = (   0.3750000  -0.2165064   0.0438383), wk =   0.1250000
        k(   12) = (   0.3750000  -0.2165064   0.1315150), wk =   0.1250000

     Dense  grid:    10017 G-vectors     FFT dimensions: (  20,  20,  60)

     Smooth grid:     5489 G-vectors     FFT dimensions: (  18,  18,  48)

     Estimated max dynamical RAM per process >       3.89Mb

     Estimated total allocated dynamical RAM >       7.78Mb

     Initial potential from superposition of free atoms

     starting charge   15.99979, renormalised to   16.00000
     Starting wfc are   16 randomized atomic wfcs

     Writing output data file graphite.save

     total cpu time spent up to now is       15.7 secs

     per-process dynamical memory:    20.7 Mb

     Self-consistent Calculation

     iteration #  1     ecut=    30.00 Ry     beta=0.70
     Davidson diagonalization with overlap
     ethr =  1.00E-06,  avg # of iterations =  6.2

     total cpu time spent up to now is       16.0 secs

     total energy              =     -45.81444677 Ry
     Harris-Foulkes estimate   =     -46.06545124 Ry
     estimated scf accuracy    <       0.44604774 Ry

     iteration #  2     ecut=    30.00 Ry     beta=0.70
     Davidson diagonalization with overlap
     ethr =  2.79E-03,  avg # of iterations =  2.0

     total cpu time spent up to now is       16.1 secs

     total energy              =     -45.88109072 Ry
     Harris-Foulkes estimate   =     -45.88000490 Ry
     estimated scf accuracy    <       0.00571696 Ry

     iteration #  3     ecut=    30.00 Ry     beta=0.70
     Davidson diagonalization with overlap
     ethr =  3.57E-05,  avg # of iterations =  2.1

     total cpu time spent up to now is       16.3 secs

     total energy              =     -45.88199043 Ry
     Harris-Foulkes estimate   =     -45.88180015 Ry
     estimated scf accuracy    <       0.00038550 Ry

     iteration #  4     ecut=    30.00 Ry     beta=0.70
     Davidson diagonalization with overlap
     ethr =  2.41E-06,  avg # of iterations =  2.0

     total cpu time spent up to now is       16.4 secs

     total energy              =     -45.88203591 Ry
     Harris-Foulkes estimate   =     -45.88203300 Ry
     estimated scf accuracy    <       0.00000397 Ry

     iteration #  5     ecut=    30.00 Ry     beta=0.70
     Davidson diagonalization with overlap
     ethr =  2.48E-08,  avg # of iterations =  2.8

     total cpu time spent up to now is       16.6 secs

     total energy              =     -45.88203805 Ry
     Harris-Foulkes estimate   =     -45.88203804 Ry
     estimated scf accuracy    <       0.00000011 Ry

     iteration #  6     ecut=    30.00 Ry     beta=0.70
     Davidson diagonalization with overlap
     ethr =  6.83E-10,  avg # of iterations =  3.4

     total cpu time spent up to now is       16.7 secs

     total energy              =     -45.88203808 Ry
     Harris-Foulkes estimate   =     -45.88203811 Ry
     estimated scf accuracy    <       0.00000007 Ry

     iteration #  7     ecut=    30.00 Ry     beta=0.70
     Davidson diagonalization with overlap
     ethr =  4.42E-10,  avg # of iterations =  2.5

     total cpu time spent up to now is       16.9 secs

     total energy              =     -45.88203810 Ry
     Harris-Foulkes estimate   =     -45.88203810 Ry
     estimated scf accuracy    <          2.0E-09 Ry

     iteration #  8     ecut=    30.00 Ry     beta=0.70
     Davidson diagonalization with overlap
     ethr =  1.24E-11,  avg # of iterations =  2.0

     total cpu time spent up to now is       17.0 secs

     End of self-consistent calculation

          k = 0.1250 0.2165 0.0438 (   676 PWs)   bands (ev):

   -11.9885 -11.8079  -0.4047   0.1972   0.2229   0.9618   1.2744   1.2921

          k = 0.1250 0.2165 0.1315 (   681 PWs)   bands (ev):

   -11.9371 -11.8624  -0.0460   0.2046   0.2158   0.5150   1.2793   1.2866

          k = 0.1250 0.5052 0.0438 (   688 PWs)   bands (ev):

    -8.4729  -8.3404  -5.5620  -5.4638  -1.0024  -0.9549   3.5643   4.4336

          k = 0.1250 0.5052 0.1315 (   693 PWs)   bands (ev):

    -8.4349  -8.3800  -5.5339  -5.4932  -0.9886  -0.9689   3.8129   4.1741

          k = 0.1250-0.3608 0.0438 (   689 PWs)   bands (ev):

   -10.5420 -10.3796  -2.5784  -2.5119  -0.2348  -0.1955   1.3151   2.5568

          k = 0.1250-0.3608 0.1315 (   687 PWs)   bands (ev):

   -10.4956 -10.4284  -2.5591  -2.5315  -0.2235  -0.2072   1.6451   2.1553

          k = 0.1250-0.0722 0.0438 (   670 PWs)   bands (ev):

   -12.7236 -12.5338  -1.2958   0.1211   1.9778   2.0054   2.6445   2.6642

          k = 0.1250-0.0722 0.1315 (   662 PWs)   bands (ev):

   -12.6697 -12.5911  -0.9248  -0.3442   1.9859   1.9973   2.6503   2.6585

          k = 0.3750 0.6495 0.0438 (   689 PWs)   bands (ev):

    -6.8810  -6.8171  -5.9640  -5.9378  -3.2666  -3.2058   5.2610   5.7376

          k = 0.3750 0.6495 0.1315 (   685 PWs)   bands (ev):

    -6.8608  -6.8342  -5.9588  -5.9478  -3.2494  -3.2242   5.4330   5.6369

          k = 0.3750-0.2165 0.0438 (   688 PWs)   bands (ev):

    -9.8328  -9.6795  -4.2619  -4.1701   0.3476   0.3783   2.1037   3.2395

          k = 0.3750-0.2165 0.1315 (   685 PWs)   bands (ev):

    -9.7890  -9.7255  -4.2354  -4.1974   0.3565   0.3693   2.4102   2.8781

     highest occupied level (ev):     5.7376

!    total energy              =     -45.88203810 Ry
     Harris-Foulkes estimate   =     -45.88203810 Ry
     estimated scf accuracy    <          4.1E-11 Ry

     The total energy is the sum of the following terms:

     one-electron contribution =     -14.76701816 Ry
     hartree contribution      =      15.13144408 Ry
     xc contribution           =     -14.42215636 Ry
     ewald contribution        =     -31.82430766 Ry

     convergence has been achieved in   8 iterations

     Forces acting on atoms (Ry/au):

     atom    1 type  1   force =    -0.00000000    0.00000000    0.00000000
     atom    2 type  1   force =     0.00000000    0.00000000    0.00000000
     atom    3 type  1   force =    -0.00000000   -0.00000000    0.00000000
     atom    4 type  1   force =    -0.00000000    0.00000000    0.00000000

     Total force =     0.000000     Total SCF correction =     0.000000


     entering subroutine stress ...

          total   stress  (Ry/bohr**3)                   (kbar)     P=   28.80
   0.00028162   0.00000000   0.00000000         41.43      0.00      0.00
   0.00000000   0.00028162   0.00000000          0.00     41.43      0.00
   0.00000000   0.00000000   0.00002401          0.00      0.00      3.53


     Writing output data file graphite.save
 
     init_run     :      0.37s CPU      0.38s WALL (       2 calls)
     electrons    :     10.42s CPU     10.53s WALL (       8 calls)
     update_pot   :      0.83s CPU      0.85s WALL (       6 calls)
     forces       :      0.34s CPU      0.34s WALL (       8 calls)
     stress       :      1.83s CPU      1.83s WALL (       8 calls)

     Called by init_run:
     wfcinit      :      0.10s CPU      0.11s WALL (       2 calls)
     potinit      :      0.12s CPU      0.12s WALL (       2 calls)

     Called by electrons:
     c_bands      :      5.95s CPU      6.03s WALL (      69 calls)
     sum_band     :      1.25s CPU      1.26s WALL (      69 calls)
     v_of_rho     :      3.25s CPU      3.26s WALL (      76 calls)
     newd         :      0.21s CPU      0.21s WALL (      76 calls)
     mix_rho      :      0.06s CPU      0.06s WALL (      69 calls)

     Called by c_bands:
     init_us_2    :      0.20s CPU      0.20s WALL (    1872 calls)
     cegterg      :      5.35s CPU      5.47s WALL (     828 calls)

     Called by sum_band:
     sum_band:bec :      0.00s CPU      0.01s WALL (     828 calls)
     addusdens    :      0.24s CPU      0.24s WALL (      69 calls)

     Called by *egterg:
     h_psi        :      4.16s CPU      4.26s WALL (    2842 calls)
     s_psi        :      0.19s CPU      0.18s WALL (    2842 calls)
     g_psi        :      0.04s CPU      0.06s WALL (    1990 calls)
     cdiaghg      :      0.56s CPU      0.50s WALL (    2734 calls)

     Called by h_psi:
     h_psi:pot    :      4.14s CPU      4.24s WALL (    2842 calls)
     h_psi:calbec :      0.24s CPU      0.22s WALL (    2842 calls)
     add_vuspsi   :      0.19s CPU      0.19s WALL (    2842 calls)

     General routines
     calbec       :      0.37s CPU      0.34s WALL (    4150 calls)
     fft          :      1.02s CPU      1.08s WALL (    5410 calls)
     ffts         :      0.02s CPU      0.02s WALL (     145 calls)
     fftw         :      3.94s CPU      3.96s WALL (   45068 calls)
     interpolate  :      0.05s CPU      0.05s WALL (     145 calls)
 
     Parallel routines
     fft_scatter  :      1.15s CPU      1.25s WALL (   50623 calls)
 
     PWSCF        :    15.98s CPU        17.67s WALL

 
   This run was terminated on:  16:23:22  18Aug2016            

=------------------------------------------------------------------------------=
   JOB DONE.
=------------------------------------------------------------------------------=
