
     Program PWSCF v.5.4.0 (svn rev. 12782M) starts on 18Aug2016 at 16:23:22 

     This program is part of the open-source Quantum ESPRESSO suite
     for quantum simulation of materials; please cite
         "P. Giannozzi et al., J. Phys.:Condens. Matter 21 395502 (2009);
          URL http://www.quantum-espresso.org", 
     in publications or presentations arising from this work. More details at
     http://www.quantum-espresso.org/quote
 
           HOST :    x86_64-pc-linux-gnu
           ARCH :    x86_64
             CC :    icc
            CPP :    cpp
            F90 :    ifort
            F77 :    ifort
         DFLAGS :    -D__INTEL -D__FFTW -D__MPI -D__PARA -D__HDF5
      BLAS LIBS :    -lmkl_intel_lp64  -lmkl_sequential -lmkl_core
    LAPACK LIBS :    
       FFT LIBS :    
      MASS LIBS :    

     Parallel version (MPI), running on     2 processors
     R & G space division:  proc/nbgrp/npool/nimage =       2
     Waiting for input...
     Reading input from standard input

     Current dimensions of program PWSCF are:
     Max number of different atomic species (ntypx) = 10
     Max number of k-points (npk) =  40000
     Max angular momentum in pseudopotentials (lmaxx) =  3

     IMPORTANT: XC functional enforced from input :
     Exchange-correlation      = VDW-DF ( 1  4  4  0 1 0)
     Any further DFT definition will be discarded
     Please, verify this is what you really want

               file O.pbe-rrkjus.UPF: wavefunction(s)  2S renormalized
               file H.pbe-rrkjus.UPF: wavefunction(s)  1S renormalized

     gamma-point specific algorithms are used

     Subspace diagonalization in iterative solution of the eigenvalue problem:
     a serial algorithm will be used

 
     Parallelization info
     --------------------
     sticks:   dense  smooth     PW     G-vecs:    dense   smooth      PW
     Min        1538    1024    257                80630    43888    5485
     Max        1539    1025    258                80633    43889    5486
     Sum        3077    2049    515               161263    87777   10971
 


     bravais-lattice index     =            8
     lattice parameter (alat)  =      15.0000  a.u.
     unit-cell volume          =    3953.7707 (a.u.)^3
     number of atoms/cell      =            6
     number of atomic types    =            2
     number of electrons       =        16.00
     number of Kohn-Sham states=            8
     kinetic-energy cutoff     =      30.0000  Ry
     charge density cutoff     =     180.0000  Ry
     convergence threshold     =      1.0E-08
     mixing beta               =       0.7000
     number of iterations used =            8  plain     mixing
     Exchange-correlation      = VDW-DF ( 1  4  4  0 1 0)

     celldm(1)=  15.000000  celldm(2)=   0.954545  celldm(3)=   1.227273
     celldm(4)=   0.000000  celldm(5)=   0.000000  celldm(6)=   0.000000

     crystal axes: (cart. coord. in units of alat)
               a(1) = (   1.000000   0.000000   0.000000 )  
               a(2) = (   0.000000   0.954545   0.000000 )  
               a(3) = (   0.000000   0.000000   1.227273 )  

     reciprocal axes: (cart. coord. in units 2 pi/alat)
               b(1) = (  1.000000  0.000000  0.000000 )  
               b(2) = (  0.000000  1.047619  0.000000 )  
               b(3) = (  0.000000  0.000000  0.814815 )  


     PseudoPot. # 1 for O  read from file:
     /home/nvarini/espresso_hdf5/espresso/pseudo/O.pbe-rrkjus.UPF
     MD5 check sum: 390ba29e75625707450f3bd3f0eb6be9
     Pseudo is Ultrasoft, Zval =  6.0
     Generated by new atomic code, or converted to UPF format
     Using radial grid of 1269 points,  4 beta functions with: 
                l(1) =   0
                l(2) =   0
                l(3) =   1
                l(4) =   1
     Q(r) pseudized with 0 coefficients 


     PseudoPot. # 2 for H  read from file:
     /home/nvarini/espresso_hdf5/espresso/pseudo/H.pbe-rrkjus.UPF
     MD5 check sum: 7cc9d459525c9a0585f487a71c3c9563
     Pseudo is Ultrasoft, Zval =  1.0
     Generated by new atomic code, or converted to UPF format
     Using radial grid of 1061 points,  2 beta functions with: 
                l(1) =   0
                l(2) =   0
     Q(r) pseudized with 0 coefficients 


     vdW kernel table read from file vdW_kernel_table
     MD5 check sum: 88c60d17101ec99b63477f765c8de84d

     atomic species   valence    mass     pseudopotential
        O              6.00    15.99940     O ( 1.00)
        H              1.00     1.00794     H ( 1.00)

      2 Sym. Ops. (no inversion) found


                                    s                        frac. trans.

      isym =  1     identity                                     

 cryst.   s( 1) = (     1          0          0      )
                  (     0          1          0      )
                  (     0          0          1      )

 cart.    s( 1) = (  1.0000000  0.0000000  0.0000000 )
                  (  0.0000000  1.0000000  0.0000000 )
                  (  0.0000000  0.0000000  1.0000000 )


      isym =  2     inv. 180 deg rotation - cart. axis [1,0,0]   

 cryst.   s( 2) = (    -1          0          0      )
                  (     0          1          0      )
                  (     0          0          1      )

 cart.    s( 2) = ( -1.0000000  0.0000000  0.0000000 )
                  (  0.0000000  1.0000000  0.0000000 )
                  (  0.0000000  0.0000000  1.0000000 )


     point group C_s (m)    
     there are  2 classes
     the character table:

       E     s    
A'     1.00  1.00
A''    1.00 -1.00

     the symmetry operations in each class and the name of the first element:

     E        1
          identity                                               
     s        2
          inv. 180 deg rotation - cart. axis [1,0,0]             

   Cartesian axes

     site n.     atom                  positions (alat units)
         1           O   tau(   1) = (   0.0000000   0.0016540  -0.0072484  )
         2           H   tau(   2) = (   0.0000000   0.0981485  -0.0826521  )
         3           H   tau(   3) = (   0.0000000   0.0490883   0.1065556  )
         4           O   tau(   4) = (   0.0000000   0.1117595   0.3550478  )
         5           H   tau(   5) = (  -0.0975766   0.0656956   0.4133167  )
         6           H   tau(   6) = (   0.0975766   0.0656956   0.4133167  )

   Crystallographic axes

     site n.     atom                  positions (cryst. coord.)
         1           O   tau(   1) = (  0.0000000  0.0017328 -0.0059061  )
         2           H   tau(   2) = (  0.0000000  0.1028222 -0.0673461  )
         3           H   tau(   3) = (  0.0000000  0.0514258  0.0868231  )
         4           O   tau(   4) = (  0.0000000  0.1170814  0.2892982  )
         5           H   tau(   5) = ( -0.0975766  0.0688239  0.3367766  )
         6           H   tau(   6) = (  0.0975766  0.0688239  0.3367766  )

     number of k points=     1
                       cart. coord. in units 2pi/alat
        k(    1) = (   0.0000000   0.0000000   0.0000000), wk =   2.0000000

                       cryst. coord.
        k(    1) = (   0.0000000   0.0000000   0.0000000), wk =   2.0000000

     Dense  grid:    80632 G-vectors     FFT dimensions: (  72,  64,  80)

     Smooth grid:    43889 G-vectors     FFT dimensions: (  54,  50,  72)

     Estimated max dynamical RAM per process >      33.31Mb

     Estimated total allocated dynamical RAM >      66.63Mb

     Initial potential from superposition of free atoms

     starting charge   15.61518, renormalised to   16.00000

     negative rho (up, down):  2.810E-05 0.000E+00


     %%%%%%%%%%%%%%%%%%%%%%%%%%%%%%%%%%%%%%%%%%%%%%%%%%%%%%%%%%%%%%%%%%%%%%%%
     %                                                                      %
     % You are using vdW-DF, which was implemented by the Thonhauser group. %
     % Please cite the following two papers that made this development      %
     % possible and the two reviews that describe the various versions:     %
     %                                                                      %
     %   T. Thonhauser et al., PRL 115, 136402 (2015).                      %
     %   T. Thonhauser et al., PRB 76, 125112 (2007).                       %
     %   K. Berland et al., Rep. Prog. Phys. 78, 066501 (2015).             %
     %   D.C. Langreth et al., J. Phys.: Condens. Matter 21, 084203 (2009). %
     %                                                                      %
     %                                                                      %
     % If you are calculating the stress with vdW-DF, please also cite:     %
     %                                                                      %
     %   R. Sabatini et al., J. Phys.: Condens. Matter 24, 424209 (2012).   %
     %                                                                      %
     %%%%%%%%%%%%%%%%%%%%%%%%%%%%%%%%%%%%%%%%%%%%%%%%%%%%%%%%%%%%%%%%%%%%%%%%


     Carrying out vdW-DF run using the following parameters:
     Nqs    =  20  Npoints =  1024  r_max =  100.000
     q_mesh =  0.00001000  0.04494208  0.09755937  0.15916263
               0.23128650  0.31572767  0.41458969  0.53033537
               0.66584808  0.82450364  1.01025438  1.22772762
               1.48234092  1.78043706  2.12944203  2.53805004
               3.01644009  3.57652955  4.23227104  5.00000000


     -----------------------------------------------
     Non-local corr. energy    =       0.27501047 Ry
     -----------------------------------------------

     Starting wfc are   12 randomized atomic wfcs

     total cpu time spent up to now is        2.1 secs

     per-process dynamical memory:    53.2 Mb

     Self-consistent Calculation

     iteration #  1     ecut=    30.00 Ry     beta=0.70
     Davidson diagonalization with overlap
     ethr =  1.00E-02,  avg # of iterations =  2.0

     negative rho (up, down):  2.480E-05 0.000E+00


     -----------------------------------------------
     Non-local corr. energy    =       0.30233309 Ry
     -----------------------------------------------


     total cpu time spent up to now is        3.0 secs

     total energy              =     -68.61213197 Ry
     Harris-Foulkes estimate   =     -69.74359544 Ry
     estimated scf accuracy    <       1.47112104 Ry

     iteration #  2     ecut=    30.00 Ry     beta=0.70
     Davidson diagonalization with overlap
     ethr =  9.19E-03,  avg # of iterations =  2.0

     negative rho (up, down):  8.281E-05 0.000E+00


     -----------------------------------------------
     Non-local corr. energy    =       0.29919527 Ry
     -----------------------------------------------


     total cpu time spent up to now is        3.9 secs

     total energy              =     -68.82939908 Ry
     Harris-Foulkes estimate   =     -69.34248806 Ry
     estimated scf accuracy    <       0.99679580 Ry

     iteration #  3     ecut=    30.00 Ry     beta=0.70
     Davidson diagonalization with overlap
     ethr =  6.23E-03,  avg # of iterations =  2.0

     negative rho (up, down):  7.210E-04 0.000E+00


     -----------------------------------------------
     Non-local corr. energy    =       0.30435584 Ry
     -----------------------------------------------


     total cpu time spent up to now is        4.7 secs

     total energy              =     -69.04868733 Ry
     Harris-Foulkes estimate   =     -69.06817827 Ry
     estimated scf accuracy    <       0.03425336 Ry

     iteration #  4     ecut=    30.00 Ry     beta=0.70
     Davidson diagonalization with overlap
     ethr =  2.14E-04,  avg # of iterations =  2.0

     negative rho (up, down):  6.245E-04 0.000E+00


     -----------------------------------------------
     Non-local corr. energy    =       0.30390353 Ry
     -----------------------------------------------


     total cpu time spent up to now is        5.6 secs

     total energy              =     -69.05568345 Ry
     Harris-Foulkes estimate   =     -69.05605640 Ry
     estimated scf accuracy    <       0.00064923 Ry

     iteration #  5     ecut=    30.00 Ry     beta=0.70
     Davidson diagonalization with overlap
     ethr =  4.06E-06,  avg # of iterations =  2.0

     negative rho (up, down):  1.772E-03 0.000E+00


     -----------------------------------------------
     Non-local corr. energy    =       0.30409104 Ry
     -----------------------------------------------


     total cpu time spent up to now is        6.5 secs

     total energy              =     -69.05588022 Ry
     Harris-Foulkes estimate   =     -69.05585897 Ry
     estimated scf accuracy    <       0.00003161 Ry

     iteration #  6     ecut=    30.00 Ry     beta=0.70
     Davidson diagonalization with overlap
     ethr =  1.98E-07,  avg # of iterations =  2.0

     negative rho (up, down):  1.876E-03 0.000E+00


     -----------------------------------------------
     Non-local corr. energy    =       0.30407562 Ry
     -----------------------------------------------


     total cpu time spent up to now is        7.3 secs

     total energy              =     -69.05588358 Ry
     Harris-Foulkes estimate   =     -69.05588594 Ry
     estimated scf accuracy    <       0.00000289 Ry

     iteration #  7     ecut=    30.00 Ry     beta=0.70
     Davidson diagonalization with overlap
     ethr =  1.81E-08,  avg # of iterations =  2.0

     negative rho (up, down):  1.894E-03 0.000E+00


     -----------------------------------------------
     Non-local corr. energy    =       0.30407498 Ry
     -----------------------------------------------


     total cpu time spent up to now is        8.2 secs

     total energy              =     -69.05588393 Ry
     Harris-Foulkes estimate   =     -69.05588406 Ry
     estimated scf accuracy    <       0.00000004 Ry

     iteration #  8     ecut=    30.00 Ry     beta=0.70
     Davidson diagonalization with overlap
     ethr =  2.72E-10,  avg # of iterations =  2.0

     negative rho (up, down):  1.891E-03 0.000E+00


     -----------------------------------------------
     Non-local corr. energy    =       0.30407413 Ry
     -----------------------------------------------


     total cpu time spent up to now is        9.1 secs

     End of self-consistent calculation

          k = 0.0000 0.0000 0.0000 (  5486 PWs)   bands (ev):

   -25.6438 -24.2673 -13.5670 -12.2977  -9.7599  -8.3491  -7.6829  -6.4200

     occupation numbers 
     1.0000   1.0000   1.0000   1.0000   1.0000   1.0000   1.0000   1.0000

     highest occupied level (ev):    -6.4200

!    total energy              =     -69.05588395 Ry
     Harris-Foulkes estimate   =     -69.05588394 Ry
     estimated scf accuracy    <          3.6E-09 Ry

     The total energy is the sum of the following terms:

     one-electron contribution =    -122.46815237 Ry
     hartree contribution      =      64.43506512 Ry
     xc contribution           =     -17.37526144 Ry
     ewald contribution        =       6.35246473 Ry

     convergence has been achieved in   8 iterations

     Forces acting on atoms (Ry/au):

     atom    1 type  1   force =     0.00000000    0.00094682   -0.00217216
     atom    2 type  2   force =     0.00000000    0.00013237    0.00068510
     atom    3 type  2   force =     0.00000000   -0.00035453    0.00012517
     atom    4 type  1   force =     0.00000000    0.00087885    0.00122879
     atom    5 type  2   force =     0.00001765   -0.00080175    0.00006655
     atom    6 type  2   force =    -0.00001765   -0.00080175    0.00006655
     The non-local contrib.  to forces
     atom    1 type  1   force =     0.00000000    2.37275193    0.53164737
     atom    2 type  2   force =     0.00000000   -0.15344372    0.12907059
     atom    3 type  2   force =     0.00000000   -0.06954775   -0.18712570
     atom    4 type  1   force =     0.00000000   -1.58418168    1.86394046
     atom    5 type  2   force =     0.16527661    0.07169197   -0.09125236
     atom    6 type  2   force =    -0.16527661    0.07169197   -0.09125236
     The ionic contribution  to forces
     atom    1 type  1   force =    -0.00000000   -4.70114709   -3.35460747
     atom    2 type  2   force =    -0.00000000    2.82811782   -2.66092597
     atom    3 type  2   force =     0.00000000    1.08890147    2.53590863
     atom    4 type  1   force =     0.00000000    3.35642550   -0.50250843
     atom    5 type  2   force =    -3.10291310   -1.28614885    1.99106662
     atom    6 type  2   force =     3.10291310   -1.28614885    1.99106662
     The local contribution  to forces
     atom    1 type  1   force =     0.00000004    2.32984372    2.82104788
     atom    2 type  2   force =     0.00000000   -2.67396297    2.53281149
     atom    3 type  2   force =    -0.00000000   -1.01912799   -2.34838982
     atom    4 type  1   force =    -0.00000028   -1.77074610   -1.35994512
     atom    5 type  2   force =     2.93765046    1.21423717   -1.89947578
     atom    6 type  2   force =    -2.93765046    1.21423716   -1.89947576
     The core correction contribution to forces
     atom    1 type  1   force =     0.00000000    0.00000000    0.00000000
     atom    2 type  2   force =     0.00000000    0.00000000    0.00000000
     atom    3 type  2   force =     0.00000000    0.00000000    0.00000000
     atom    4 type  1   force =     0.00000000    0.00000000    0.00000000
     atom    5 type  2   force =     0.00000000    0.00000000    0.00000000
     atom    6 type  2   force =     0.00000000    0.00000000    0.00000000
     The Hubbard contrib.    to forces
     atom    1 type  1   force =     0.00000000    0.00000000    0.00000000
     atom    2 type  2   force =     0.00000000    0.00000000    0.00000000
     atom    3 type  2   force =     0.00000000    0.00000000    0.00000000
     atom    4 type  1   force =     0.00000000    0.00000000    0.00000000
     atom    5 type  2   force =     0.00000000    0.00000000    0.00000000
     atom    6 type  2   force =     0.00000000    0.00000000    0.00000000
     The SCF correction term to forces
     atom    1 type  1   force =    -0.00000002    0.00008117    0.00001031
     atom    2 type  2   force =     0.00000000    0.00000414   -0.00000075
     atom    3 type  2   force =     0.00000000    0.00000264    0.00000231
     atom    4 type  1   force =     0.00000029   -0.00003596    0.00001213
     atom    5 type  2   force =     0.00000368    0.00000086   -0.00000168
     atom    6 type  2   force =    -0.00000368    0.00000087   -0.00000169

     Total force =     0.003134     Total SCF correction =     0.000091


     entering subroutine stress ...

          total   stress  (Ry/bohr**3)                   (kbar)     P=   -1.70
  -0.00001155   0.00000000   0.00000000         -1.70      0.00      0.00
   0.00000000  -0.00001112  -0.00000083          0.00     -1.64     -0.12
   0.00000000  -0.00000083  -0.00001193          0.00     -0.12     -1.75

     kinetic stress (kbar)    773.91      0.00      0.00
                                0.00    795.27     35.09
                                0.00     35.09    748.19

     local   stress (kbar)  -1260.29      0.00      0.00
                                0.00  -1418.75   -162.43
                                0.00   -162.43  -2492.38

     nonloc. stress (kbar)    278.33      0.00      0.00
                                0.00    280.60     11.20
                                0.00     11.20    269.13

     hartree stress (kbar)    584.70     -0.00     -0.00
                               -0.00    685.81    102.02
                               -0.00    102.02   1126.88

     exc-cor stress (kbar)   -207.38      0.00     -0.00
                                0.00   -207.95     -1.03
                               -0.00     -1.03   -205.76

     corecor stress (kbar)      0.00      0.00      0.00
                                0.00      0.00      0.00
                                0.00      0.00      0.00

     ewald   stress (kbar)   -173.91      0.00      0.00
                                0.00   -139.58     15.06
                                0.00     15.06    549.84

     hubbard stress (kbar)      0.00      0.00      0.00
                                0.00      0.00      0.00
                                0.00      0.00      0.00

     london  stress (kbar)      0.00      0.00      0.00
                                0.00      0.00      0.00
                                0.00      0.00      0.00

     XDM     stress (kbar)      0.00      0.00      0.00
                                0.00      0.00      0.00
                                0.00      0.00      0.00

     dft-nl  stress (kbar)      2.95     -0.00      0.00
                               -0.00      2.97     -0.04
                                0.00     -0.04      2.35

     TS-vdW  stress (kbar)      0.00      0.00      0.00
                                0.00      0.00      0.00
                                0.00      0.00      0.00



     Writing output data file water_vdw.save
 
     init_run     :      1.84s CPU      1.87s WALL (       1 calls)
     electrons    :      6.73s CPU      6.98s WALL (       1 calls)
     forces       :      0.47s CPU      0.46s WALL (       1 calls)
     stress       :      2.22s CPU      2.25s WALL (       1 calls)

     Called by init_run:
     wfcinit      :      0.02s CPU      0.02s WALL (       1 calls)
     potinit      :      1.11s CPU      1.14s WALL (       1 calls)

     Called by electrons:
     c_bands      :      0.36s CPU      0.36s WALL (       8 calls)
     sum_band     :      0.51s CPU      0.53s WALL (       8 calls)
     v_of_rho     :      6.12s CPU      6.38s WALL (       9 calls)
     v_h          :      0.05s CPU      0.05s WALL (       9 calls)
     v_xc         :      6.07s CPU      6.33s WALL (       9 calls)
     newd         :      0.31s CPU      0.31s WALL (       9 calls)
     mix_rho      :      0.09s CPU      0.09s WALL (       8 calls)

     Called by c_bands:
     init_us_2    :      0.02s CPU      0.02s WALL (      17 calls)
     regterg      :      0.33s CPU      0.33s WALL (       8 calls)

     Called by sum_band:
     sum_band:bec :      0.00s CPU      0.00s WALL (       8 calls)
     addusdens    :      0.33s CPU      0.34s WALL (       8 calls)

     Called by *egterg:
     h_psi        :      0.31s CPU      0.31s WALL (      25 calls)
     s_psi        :      0.01s CPU      0.01s WALL (      25 calls)
     g_psi        :      0.00s CPU      0.00s WALL (      16 calls)
     rdiaghg      :      0.00s CPU      0.01s WALL (      24 calls)
     regterg:over :      0.01s CPU      0.01s WALL (      16 calls)
     regterg:upda :      0.01s CPU      0.01s WALL (      16 calls)
     regterg:last :      0.00s CPU      0.00s WALL (       8 calls)

     Called by h_psi:
     h_psi:pot    :      0.30s CPU      0.30s WALL (      25 calls)
     h_psi:calbec :      0.01s CPU      0.01s WALL (      25 calls)
     add_vuspsi   :      0.01s CPU      0.01s WALL (      25 calls)

     General routines
     calbec       :      0.01s CPU      0.01s WALL (      38 calls)
     fft          :      2.44s CPU      2.44s WALL (     642 calls)
     ffts         :      0.03s CPU      0.03s WALL (      17 calls)
     fftw         :      0.29s CPU      0.29s WALL (     228 calls)
     interpolate  :      0.11s CPU      0.11s WALL (      17 calls)
 
     Parallel routines
     fft_scatter  :      0.95s CPU      0.95s WALL (     887 calls)
 
     PWSCF        :    11.69s CPU        12.23s WALL

 
   This run was terminated on:  16:23:35  18Aug2016            

=------------------------------------------------------------------------------=
   JOB DONE.
=------------------------------------------------------------------------------=
