
     Program PWSCF v.5.4.0 (svn rev. 12782M) starts on 18Aug2016 at 16:10:24 

     This program is part of the open-source Quantum ESPRESSO suite
     for quantum simulation of materials; please cite
         "P. Giannozzi et al., J. Phys.:Condens. Matter 21 395502 (2009);
          URL http://www.quantum-espresso.org", 
     in publications or presentations arising from this work. More details at
     http://www.quantum-espresso.org/quote
 
           HOST :    x86_64-pc-linux-gnu
           ARCH :    x86_64
             CC :    icc
            CPP :    cpp
            F90 :    ifort
            F77 :    ifort
         DFLAGS :    -D__INTEL -D__FFTW -D__MPI -D__PARA -D__HDF5
      BLAS LIBS :    -lmkl_intel_lp64  -lmkl_sequential -lmkl_core
    LAPACK LIBS :    
       FFT LIBS :    
      MASS LIBS :    

     Parallel version (MPI), running on     2 processors
     R & G space division:  proc/nbgrp/npool/nimage =       2
     Waiting for input...
     Reading input from standard input
     Message from routine read_cards :
     DEPRECATED: no units specified in ATOMIC_POSITIONS card
     Message from routine read_cards :
     ATOMIC_POSITIONS: units set to alat

     Current dimensions of program PWSCF are:
     Max number of different atomic species (ntypx) = 10
     Max number of k-points (npk) =  40000
     Max angular momentum in pseudopotentials (lmaxx) =  3

     Subspace diagonalization in iterative solution of the eigenvalue problem:
     a serial algorithm will be used

 
     Parallelization info
     --------------------
     sticks:   dense  smooth     PW     G-vecs:    dense   smooth      PW
     Min          60      60     15                  434      434      56
     Max          61      61     16                  435      435      57
     Sum         121     121     31                  869      869     113
 


     bravais-lattice index     =            2
     lattice parameter (alat)  =      10.1800  a.u.
     unit-cell volume          =     263.7445 (a.u.)^3
     number of atoms/cell      =            2
     number of atomic types    =            1
     number of electrons       =         8.00
     number of Kohn-Sham states=            4
     kinetic-energy cutoff     =       8.0000  Ry
     charge density cutoff     =      32.0000  Ry
     convergence threshold     =      1.0E-08
     mixing beta               =       0.7000
     number of iterations used =            8  plain     mixing
     Exchange-correlation      =  SLA  PZ   NOGX NOGC ( 1  1  0  0 0 0)
     nstep                     =          100


     celldm(1)=  10.180000  celldm(2)=   0.000000  celldm(3)=   0.000000
     celldm(4)=   0.000000  celldm(5)=   0.000000  celldm(6)=   0.000000

     crystal axes: (cart. coord. in units of alat)
               a(1) = (  -0.500000   0.000000   0.500000 )  
               a(2) = (   0.000000   0.500000   0.500000 )  
               a(3) = (  -0.500000   0.500000   0.000000 )  

     reciprocal axes: (cart. coord. in units 2 pi/alat)
               b(1) = ( -1.000000 -1.000000  1.000000 )  
               b(2) = (  1.000000  1.000000  1.000000 )  
               b(3) = ( -1.000000  1.000000 -1.000000 )  


     PseudoPot. # 1 for Si read from file:
     /home/nvarini/espresso_hdf5/espresso/pseudo/Si.pz-vbc.UPF
     MD5 check sum: 6dfa03ddd5817404712e03e4d12deb78
     Pseudo is Norm-conserving, Zval =  4.0
     Generated by new atomic code, or converted to UPF format
     Using radial grid of  431 points,  2 beta functions with: 
                l(1) =   0
                l(2) =   1

     atomic species   valence    mass     pseudopotential
        Si             4.00    28.08600     Si( 1.00)

     No symmetry found



   Cartesian axes

     site n.     atom                  positions (alat units)
         1           Si  tau(   1) = (  -0.1230000  -0.1230000  -0.1230000  )
         2           Si  tau(   2) = (   0.1230000   0.1230000   0.1230000  )

     number of k points=     1
                       cart. coord. in units 2pi/alat
        k(    1) = (   0.0000000   0.0000000   0.0000000), wk =   2.0000000

     Dense  grid:      869 G-vectors     FFT dimensions: (  15,  15,  15)

     Estimated max dynamical RAM per process >       0.22Mb

     Estimated total allocated dynamical RAM >       0.44Mb

     Initial potential from superposition of free atoms

     starting charge    7.99901, renormalised to    8.00000
     Starting wfc are    8 randomized atomic wfcs

     total cpu time spent up to now is        0.0 secs

     per-process dynamical memory:     1.4 Mb

     Self-consistent Calculation

     iteration #  1     ecut=     8.00 Ry     beta=0.70
     Davidson diagonalization with overlap
     ethr =  1.00E-02,  avg # of iterations =  2.0

     total cpu time spent up to now is        0.0 secs

     total energy              =     -14.43209229 Ry
     Harris-Foulkes estimate   =     -14.55434888 Ry
     estimated scf accuracy    <       0.32482106 Ry

     iteration #  2     ecut=     8.00 Ry     beta=0.70
     Davidson diagonalization with overlap
     ethr =  4.06E-03,  avg # of iterations =  1.0

     total cpu time spent up to now is        0.0 secs

     total energy              =     -14.44688892 Ry
     Harris-Foulkes estimate   =     -14.44915900 Ry
     estimated scf accuracy    <       0.01104326 Ry

     iteration #  3     ecut=     8.00 Ry     beta=0.70
     Davidson diagonalization with overlap
     ethr =  1.38E-04,  avg # of iterations =  2.0

     total cpu time spent up to now is        0.0 secs

     total energy              =     -14.44791633 Ry
     Harris-Foulkes estimate   =     -14.44788520 Ry
     estimated scf accuracy    <       0.00021336 Ry

     iteration #  4     ecut=     8.00 Ry     beta=0.70
     Davidson diagonalization with overlap
     ethr =  2.67E-06,  avg # of iterations =  2.0

     total cpu time spent up to now is        0.0 secs

     total energy              =     -14.44793435 Ry
     Harris-Foulkes estimate   =     -14.44793425 Ry
     estimated scf accuracy    <       0.00000242 Ry

     iteration #  5     ecut=     8.00 Ry     beta=0.70
     Davidson diagonalization with overlap
     ethr =  3.03E-08,  avg # of iterations =  4.0

     total cpu time spent up to now is        0.0 secs

     total energy              =     -14.44793722 Ry
     Harris-Foulkes estimate   =     -14.44793754 Ry
     estimated scf accuracy    <       0.00000133 Ry

     iteration #  6     ecut=     8.00 Ry     beta=0.70
     Davidson diagonalization with overlap
     ethr =  1.67E-08,  avg # of iterations =  1.0

     total cpu time spent up to now is        0.0 secs

     total energy              =     -14.44793725 Ry
     Harris-Foulkes estimate   =     -14.44793730 Ry
     estimated scf accuracy    <       0.00000027 Ry

     iteration #  7     ecut=     8.00 Ry     beta=0.70
     Davidson diagonalization with overlap
     ethr =  3.35E-09,  avg # of iterations =  4.0

     total cpu time spent up to now is        0.0 secs

     total energy              =     -14.44793732 Ry
     Harris-Foulkes estimate   =     -14.44793735 Ry
     estimated scf accuracy    <       0.00000008 Ry

     iteration #  8     ecut=     8.00 Ry     beta=0.70
     Davidson diagonalization with overlap
     ethr =  1.06E-09,  avg # of iterations =  3.0

     total cpu time spent up to now is        0.0 secs

     End of self-consistent calculation

          k = 0.0000 0.0000 0.0000 (   113 PWs)   bands (ev):

    -4.7639   7.1611   7.5134   7.5134

     highest occupied level (ev):     7.5134

!    total energy              =     -14.44793733 Ry
     Harris-Foulkes estimate   =     -14.44793733 Ry
     estimated scf accuracy    <          4.4E-09 Ry

     convergence has been achieved in   8 iterations

     Forces acting on atoms (Ry/au):

     atom    1 type  1   force =    -0.02329723   -0.02329687   -0.02329823
     atom    2 type  1   force =     0.02329723    0.02329687    0.02329823

     Total force =     0.057067     Total SCF correction =     0.000016

     Molecular Dynamics Calculation
     mass Si               =    28.09
     Time step             =    20.00 a.u.,  0.9676 femto-seconds

     Entering Dynamics:    iteration =     1
                           time      =   0.0010 pico-seconds


ATOMIC_POSITIONS (alat)
Si      -0.123017880  -0.123017880  -0.123017881
Si       0.123017880   0.123017880   0.123017881


     kinetic energy (Ekin) =     0.00000000 Ry
     temperature           =     0.00000000 K 
     Ekin + Etot (const)   =   -14.44793733 Ry

     Linear momentum :    0.0000000000    0.0000000000    0.0000000000

     Writing output data file pwscf.save
     NEW-OLD atomic charge density approx. for the potential

     total cpu time spent up to now is        0.1 secs

     per-process dynamical memory:     2.6 Mb

     Self-consistent Calculation

     iteration #  1     ecut=     8.00 Ry     beta=0.70
     Davidson diagonalization with overlap
     ethr =  1.00E-06,  avg # of iterations =  2.0

     Threshold (ethr) on eigenvalues was too large:
     Diagonalizing with lowered threshold

     Davidson diagonalization with overlap
     ethr =  1.52E-10,  avg # of iterations =  3.0

     total cpu time spent up to now is        0.1 secs

     total energy              =     -14.44796266 Ry
     Harris-Foulkes estimate   =     -14.44796266 Ry
     estimated scf accuracy    <       0.00000002 Ry

     iteration #  2     ecut=     8.00 Ry     beta=0.70
     Davidson diagonalization with overlap
     ethr =  2.44E-10,  avg # of iterations =  3.0

     total cpu time spent up to now is        0.1 secs

     End of self-consistent calculation

          k = 0.0000 0.0000 0.0000 (   113 PWs)   bands (ev):

    -4.7639   7.1631   7.5123   7.5123

     highest occupied level (ev):     7.5123

!    total energy              =     -14.44796266 Ry
     Harris-Foulkes estimate   =     -14.44796266 Ry
     estimated scf accuracy    <          8.6E-09 Ry

     convergence has been achieved in   2 iterations

     Forces acting on atoms (Ry/au):

     atom    1 type  1   force =    -0.02308249   -0.02308175   -0.02308155
     atom    2 type  1   force =     0.02308249    0.02308175    0.02308155

     Total force =     0.056539     Total SCF correction =     0.000015

     Entering Dynamics:    iteration =     2
                           time      =   0.0019 pico-seconds


ATOMIC_POSITIONS (alat)
Si      -0.123071190  -0.123071189  -0.123071190
Si       0.123071190   0.123071189   0.123071190


     kinetic energy (Ekin) =     0.00002521 Ry
     temperature           =     2.65342635 K 
     Ekin + Etot (const)   =   -14.44793745 Ry

     Linear momentum :    0.0000000000    0.0000000000    0.0000000000

     Writing output data file pwscf.save

     first order wave-functions extrapolation
     NEW-OLD atomic charge density approx. for the potential

     total cpu time spent up to now is        0.1 secs

     per-process dynamical memory:     2.6 Mb

     Self-consistent Calculation

     iteration #  1     ecut=     8.00 Ry     beta=0.70
     Davidson diagonalization with overlap
     ethr =  1.00E-06,  avg # of iterations =  1.0

     Threshold (ethr) on eigenvalues was too large:
     Diagonalizing with lowered threshold

     Davidson diagonalization with overlap
     ethr =  1.18E-09,  avg # of iterations =  2.0

     total cpu time spent up to now is        0.1 secs

     total energy              =     -14.44803678 Ry
     Harris-Foulkes estimate   =     -14.44803678 Ry
     estimated scf accuracy    <       0.00000009 Ry

     iteration #  2     ecut=     8.00 Ry     beta=0.70
     Davidson diagonalization with overlap
     ethr =  1.12E-09,  avg # of iterations =  2.0

     total cpu time spent up to now is        0.1 secs

     End of self-consistent calculation

          k = 0.0000 0.0000 0.0000 (   113 PWs)   bands (ev):

    -4.7637   7.1694   7.5091   7.5091

     highest occupied level (ev):     7.5091

!    total energy              =     -14.44803679 Ry
     Harris-Foulkes estimate   =     -14.44803678 Ry
     estimated scf accuracy    <          7.2E-09 Ry

     convergence has been achieved in   2 iterations

     Forces acting on atoms (Ry/au):

     atom    1 type  1   force =    -0.02244036   -0.02244184   -0.02244137
     atom    2 type  1   force =     0.02244036    0.02244184    0.02244137

     Total force =     0.054969     Total SCF correction =     0.000015

     Entering Dynamics:    iteration =     3
                           time      =   0.0029 pico-seconds


ATOMIC_POSITIONS (alat)
Si      -0.123158945  -0.123158944  -0.123158946
Si       0.123158945   0.123158944   0.123158946


     kinetic energy (Ekin) =     0.00009898 Ry
     temperature           =    10.41866032 K 
     Ekin + Etot (const)   =   -14.44793781 Ry

     Linear momentum :    0.0000000000    0.0000000000    0.0000000000

     Writing output data file pwscf.save

     second order wave-functions extrapolation
     NEW-OLD atomic charge density approx. for the potential

     total cpu time spent up to now is        0.1 secs

     per-process dynamical memory:     2.6 Mb

     Self-consistent Calculation

     iteration #  1     ecut=     8.00 Ry     beta=0.70
     Davidson diagonalization with overlap
     ethr =  1.00E-06,  avg # of iterations =  1.0

     Threshold (ethr) on eigenvalues was too large:
     Diagonalizing with lowered threshold

     Davidson diagonalization with overlap
     ethr =  2.64E-09,  avg # of iterations =  1.0

     total cpu time spent up to now is        0.1 secs

     total energy              =     -14.44815426 Ry
     Harris-Foulkes estimate   =     -14.44815425 Ry
     estimated scf accuracy    <       0.00000021 Ry

     iteration #  2     ecut=     8.00 Ry     beta=0.70
     Davidson diagonalization with overlap
     ethr =  2.67E-09,  avg # of iterations =  2.0

     total cpu time spent up to now is        0.1 secs

     total energy              =     -14.44815429 Ry
     Harris-Foulkes estimate   =     -14.44815428 Ry
     estimated scf accuracy    <       0.00000002 Ry

     iteration #  3     ecut=     8.00 Ry     beta=0.70
     Davidson diagonalization with overlap
     ethr =  2.33E-10,  avg # of iterations =  2.0

     total cpu time spent up to now is        0.1 secs

     End of self-consistent calculation

          k = 0.0000 0.0000 0.0000 (   113 PWs)   bands (ev):

    -4.7635   7.1795   7.5039   7.5039

     highest occupied level (ev):     7.5039

!    total energy              =     -14.44815429 Ry
     Harris-Foulkes estimate   =     -14.44815429 Ry
     estimated scf accuracy    <          7.5E-10 Ry

     convergence has been achieved in   3 iterations

     Forces acting on atoms (Ry/au):

     atom    1 type  1   force =    -0.02139664   -0.02139492   -0.02139480
     atom    2 type  1   force =     0.02139664    0.02139492    0.02139480

     Total force =     0.052408     Total SCF correction =     0.000006

     Entering Dynamics:    iteration =     4
                           time      =   0.0039 pico-seconds


ATOMIC_POSITIONS (alat)
Si      -0.123279543  -0.123279540  -0.123279542
Si       0.123279543   0.123279540   0.123279542


     kinetic energy (Ekin) =     0.00021593 Ry
     temperature           =    22.72832695 K 
     Ekin + Etot (const)   =   -14.44793836 Ry

     Linear momentum :    0.0000000000    0.0000000000    0.0000000000

     Writing output data file pwscf.save

     second order wave-functions extrapolation
     NEW-OLD atomic charge density approx. for the potential

     total cpu time spent up to now is        0.2 secs

     per-process dynamical memory:     2.6 Mb

     Self-consistent Calculation

     iteration #  1     ecut=     8.00 Ry     beta=0.70
     Davidson diagonalization with overlap
     ethr =  1.00E-06,  avg # of iterations =  2.0

     Threshold (ethr) on eigenvalues was too large:
     Diagonalizing with lowered threshold

     Davidson diagonalization with overlap
     ethr =  4.88E-09,  avg # of iterations =  1.0

     total cpu time spent up to now is        0.2 secs

     total energy              =     -14.44830657 Ry
     Harris-Foulkes estimate   =     -14.44830655 Ry
     estimated scf accuracy    <       0.00000040 Ry

     iteration #  2     ecut=     8.00 Ry     beta=0.70
     Davidson diagonalization with overlap
     ethr =  4.96E-09,  avg # of iterations =  2.0

     total cpu time spent up to now is        0.2 secs

     total energy              =     -14.44830661 Ry
     Harris-Foulkes estimate   =     -14.44830659 Ry
     estimated scf accuracy    <       0.00000003 Ry

     iteration #  3     ecut=     8.00 Ry     beta=0.70
     Davidson diagonalization with overlap
     ethr =  3.88E-10,  avg # of iterations =  1.0

     total cpu time spent up to now is        0.2 secs

     End of self-consistent calculation

          k = 0.0000 0.0000 0.0000 (   113 PWs)   bands (ev):

    -4.7632   7.1936   7.4967   7.4967

     highest occupied level (ev):     7.4967

!    total energy              =     -14.44830661 Ry
     Harris-Foulkes estimate   =     -14.44830661 Ry
     estimated scf accuracy    <          6.4E-10 Ry

     convergence has been achieved in   3 iterations

     Forces acting on atoms (Ry/au):

     atom    1 type  1   force =    -0.01995785   -0.01995797   -0.01995798
     atom    2 type  1   force =     0.01995785    0.01995797    0.01995798

     Total force =     0.048887     Total SCF correction =     0.000007

     Entering Dynamics:    iteration =     5
                           time      =   0.0048 pico-seconds


ATOMIC_POSITIONS (alat)
Si      -0.123430774  -0.123430770  -0.123430772
Si       0.123430774   0.123430770   0.123430772


     kinetic energy (Ekin) =     0.00036754 Ry
     temperature           =    38.68634964 K 
     Ekin + Etot (const)   =   -14.44793907 Ry

     Linear momentum :    0.0000000000    0.0000000000    0.0000000000

     Writing output data file pwscf.save

     second order wave-functions extrapolation
     NEW-OLD atomic charge density approx. for the potential

     total cpu time spent up to now is        0.2 secs

     per-process dynamical memory:     2.6 Mb

     Self-consistent Calculation

     iteration #  1     ecut=     8.00 Ry     beta=0.70
     Davidson diagonalization with overlap
     ethr =  1.00E-06,  avg # of iterations =  1.0

     Threshold (ethr) on eigenvalues was too large:
     Diagonalizing with lowered threshold

     Davidson diagonalization with overlap
     ethr =  7.63E-09,  avg # of iterations =  1.0

     total cpu time spent up to now is        0.2 secs

     total energy              =     -14.44848264 Ry
     Harris-Foulkes estimate   =     -14.44848261 Ry
     estimated scf accuracy    <       0.00000062 Ry

     iteration #  2     ecut=     8.00 Ry     beta=0.70
     Davidson diagonalization with overlap
     ethr =  7.79E-09,  avg # of iterations =  2.0

     total cpu time spent up to now is        0.2 secs

     total energy              =     -14.44848270 Ry
     Harris-Foulkes estimate   =     -14.44848267 Ry
     estimated scf accuracy    <       0.00000005 Ry

     iteration #  3     ecut=     8.00 Ry     beta=0.70
     Davidson diagonalization with overlap
     ethr =  6.05E-10,  avg # of iterations =  1.0

     total cpu time spent up to now is        0.2 secs

     End of self-consistent calculation

          k = 0.0000 0.0000 0.0000 (   113 PWs)   bands (ev):

    -4.7629   7.2112   7.4877   7.4877

     highest occupied level (ev):     7.4877

!    total energy              =     -14.44848270 Ry
     Harris-Foulkes estimate   =     -14.44848270 Ry
     estimated scf accuracy    <          9.8E-10 Ry

     convergence has been achieved in   3 iterations

     Forces acting on atoms (Ry/au):

     atom    1 type  1   force =    -0.01816302   -0.01816304   -0.01816303
     atom    2 type  1   force =     0.01816302    0.01816304    0.01816303

     Total force =     0.044490     Total SCF correction =     0.000009

     Entering Dynamics:    iteration =     6
                           time      =   0.0058 pico-seconds


ATOMIC_POSITIONS (alat)
Si      -0.123609885  -0.123609880  -0.123609881
Si       0.123609885   0.123609880   0.123609881


     kinetic energy (Ekin) =     0.00054280 Ry
     temperature           =    57.13421491 K 
     Ekin + Etot (const)   =   -14.44793990 Ry

     Linear momentum :    0.0000000000    0.0000000000    0.0000000000

     Writing output data file pwscf.save

     second order wave-functions extrapolation
     NEW-OLD atomic charge density approx. for the potential

     total cpu time spent up to now is        0.2 secs

     per-process dynamical memory:     2.6 Mb

     Self-consistent Calculation

     iteration #  1     ecut=     8.00 Ry     beta=0.70
     Davidson diagonalization with overlap
     ethr =  1.00E-06,  avg # of iterations =  1.0

     Threshold (ethr) on eigenvalues was too large:
     Diagonalizing with lowered threshold

     Davidson diagonalization with overlap
     ethr =  1.07E-08,  avg # of iterations =  1.0

     total cpu time spent up to now is        0.2 secs

     total energy              =     -14.44866978 Ry
     Harris-Foulkes estimate   =     -14.44866974 Ry
     estimated scf accuracy    <       0.00000087 Ry

     iteration #  2     ecut=     8.00 Ry     beta=0.70
     Davidson diagonalization with overlap
     ethr =  1.09E-08,  avg # of iterations =  2.0

     total cpu time spent up to now is        0.2 secs

     total energy              =     -14.44866986 Ry
     Harris-Foulkes estimate   =     -14.44866983 Ry
     estimated scf accuracy    <       0.00000007 Ry

     iteration #  3     ecut=     8.00 Ry     beta=0.70
     Davidson diagonalization with overlap
     ethr =  8.47E-10,  avg # of iterations =  1.0

     total cpu time spent up to now is        0.3 secs

     End of self-consistent calculation

          k = 0.0000 0.0000 0.0000 (   113 PWs)   bands (ev):

    -4.7625   7.2321   7.4770   7.4770

     highest occupied level (ev):     7.4770

!    total energy              =     -14.44866987 Ry
     Harris-Foulkes estimate   =     -14.44866987 Ry
     estimated scf accuracy    <          1.4E-09 Ry

     convergence has been achieved in   3 iterations

     Forces acting on atoms (Ry/au):

     atom    1 type  1   force =    -0.01604755   -0.01604761   -0.01604759
     atom    2 type  1   force =     0.01604755    0.01604761    0.01604759

     Total force =     0.039308     Total SCF correction =     0.000011

     Entering Dynamics:    iteration =     7
                           time      =   0.0068 pico-seconds


ATOMIC_POSITIONS (alat)
Si      -0.123813628  -0.123813621  -0.123813622
Si       0.123813628   0.123813621   0.123813622


     kinetic energy (Ekin) =     0.00072908 Ry
     temperature           =    76.74217580 K 
     Ekin + Etot (const)   =   -14.44794078 Ry

     Linear momentum :    0.0000000000    0.0000000000    0.0000000000

     Writing output data file pwscf.save

     second order wave-functions extrapolation
     NEW-OLD atomic charge density approx. for the potential

     total cpu time spent up to now is        0.3 secs

     per-process dynamical memory:     2.6 Mb

     Self-consistent Calculation

     iteration #  1     ecut=     8.00 Ry     beta=0.70
     Davidson diagonalization with overlap
     ethr =  1.00E-06,  avg # of iterations =  2.0

     Threshold (ethr) on eigenvalues was too large:
     Diagonalizing with lowered threshold

     Davidson diagonalization with overlap
     ethr =  1.44E-08,  avg # of iterations =  1.0

     total cpu time spent up to now is        0.3 secs

     total energy              =     -14.44885460 Ry
     Harris-Foulkes estimate   =     -14.44885457 Ry
     estimated scf accuracy    <       0.00000115 Ry

     iteration #  2     ecut=     8.00 Ry     beta=0.70
     Davidson diagonalization with overlap
     ethr =  1.44E-08,  avg # of iterations =  2.0

     total cpu time spent up to now is        0.3 secs

     total energy              =     -14.44885473 Ry
     Harris-Foulkes estimate   =     -14.44885468 Ry
     estimated scf accuracy    <       0.00000009 Ry

     iteration #  3     ecut=     8.00 Ry     beta=0.70
     Davidson diagonalization with overlap
     ethr =  1.14E-09,  avg # of iterations =  1.0

     total cpu time spent up to now is        0.3 secs

     End of self-consistent calculation

          k = 0.0000 0.0000 0.0000 (   113 PWs)   bands (ev):

    -4.7622   7.2559   7.4649   7.4649

     highest occupied level (ev):     7.4649

!    total energy              =     -14.44885473 Ry
     Harris-Foulkes estimate   =     -14.44885473 Ry
     estimated scf accuracy    <          2.4E-09 Ry

     convergence has been achieved in   3 iterations

     Forces acting on atoms (Ry/au):

     atom    1 type  1   force =    -0.01365478   -0.01365486   -0.01365484
     atom    2 type  1   force =     0.01365478    0.01365486    0.01365484

     Total force =     0.033447     Total SCF correction =     0.000011

     Entering Dynamics:    iteration =     8
                           time      =   0.0077 pico-seconds


ATOMIC_POSITIONS (alat)
Si      -0.124038331  -0.124038322  -0.124038323
Si       0.124038331   0.124038322   0.124038323


     kinetic energy (Ekin) =     0.00091307 Ry
     temperature           =    96.10797706 K 
     Ekin + Etot (const)   =   -14.44794166 Ry

     Linear momentum :    0.0000000000    0.0000000000    0.0000000000

     Writing output data file pwscf.save

     second order wave-functions extrapolation
     NEW-OLD atomic charge density approx. for the potential

     total cpu time spent up to now is        0.3 secs

     per-process dynamical memory:     2.6 Mb

     Self-consistent Calculation

     iteration #  1     ecut=     8.00 Ry     beta=0.70
     Davidson diagonalization with overlap
     ethr =  1.00E-06,  avg # of iterations =  2.0

     Threshold (ethr) on eigenvalues was too large:
     Diagonalizing with lowered threshold

     Davidson diagonalization with overlap
     ethr =  1.75E-08,  avg # of iterations =  1.0

     total cpu time spent up to now is        0.3 secs

     total energy              =     -14.44902403 Ry
     Harris-Foulkes estimate   =     -14.44902400 Ry
     estimated scf accuracy    <       0.00000140 Ry

     iteration #  2     ecut=     8.00 Ry     beta=0.70
     Davidson diagonalization with overlap
     ethr =  1.75E-08,  avg # of iterations =  2.0

     total cpu time spent up to now is        0.3 secs

     total energy              =     -14.44902419 Ry
     Harris-Foulkes estimate   =     -14.44902413 Ry
     estimated scf accuracy    <       0.00000011 Ry

     iteration #  3     ecut=     8.00 Ry     beta=0.70
     Davidson diagonalization with overlap
     ethr =  1.38E-09,  avg # of iterations =  1.0

     total cpu time spent up to now is        0.3 secs

     End of self-consistent calculation

          k = 0.0000 0.0000 0.0000 (   113 PWs)   bands (ev):

    -4.7618   7.2821   7.4516   7.4516

     highest occupied level (ev):     7.4516

!    total energy              =     -14.44902419 Ry
     Harris-Foulkes estimate   =     -14.44902419 Ry
     estimated scf accuracy    <          3.0E-09 Ry

     convergence has been achieved in   3 iterations

     Forces acting on atoms (Ry/au):

     atom    1 type  1   force =    -0.01103176   -0.01103186   -0.01103185
     atom    2 type  1   force =     0.01103176    0.01103186    0.01103185

     Total force =     0.027022     Total SCF correction =     0.000013

     Entering Dynamics:    iteration =     9
                           time      =   0.0087 pico-seconds


ATOMIC_POSITIONS (alat)
Si      -0.124279966  -0.124279956  -0.124279957
Si       0.124279966   0.124279956   0.124279957


     kinetic energy (Ekin) =     0.00108172 Ry
     temperature           =   113.85980174 K 
     Ekin + Etot (const)   =   -14.44794247 Ry

     Linear momentum :    0.0000000000    0.0000000000    0.0000000000

     Writing output data file pwscf.save

     second order wave-functions extrapolation
     NEW-OLD atomic charge density approx. for the potential

     total cpu time spent up to now is        0.4 secs

     per-process dynamical memory:     2.6 Mb

     Self-consistent Calculation

     iteration #  1     ecut=     8.00 Ry     beta=0.70
     Davidson diagonalization with overlap
     ethr =  1.00E-06,  avg # of iterations =  2.0

     Threshold (ethr) on eigenvalues was too large:
     Diagonalizing with lowered threshold

     Davidson diagonalization with overlap
     ethr =  2.03E-08,  avg # of iterations =  1.0

     total cpu time spent up to now is        0.4 secs

     total energy              =     -14.44916621 Ry
     Harris-Foulkes estimate   =     -14.44916617 Ry
     estimated scf accuracy    <       0.00000163 Ry

     iteration #  2     ecut=     8.00 Ry     beta=0.70
     Davidson diagonalization with overlap
     ethr =  2.03E-08,  avg # of iterations =  2.0

     total cpu time spent up to now is        0.4 secs

     total energy              =     -14.44916639 Ry
     Harris-Foulkes estimate   =     -14.44916633 Ry
     estimated scf accuracy    <       0.00000013 Ry

     iteration #  3     ecut=     8.00 Ry     beta=0.70
     Davidson diagonalization with overlap
     ethr =  1.60E-09,  avg # of iterations =  1.0

     total cpu time spent up to now is        0.4 secs

     End of self-consistent calculation

          k = 0.0000 0.0000 0.0000 (   113 PWs)   bands (ev):

    -4.7616   7.3104   7.4373   7.4373

     highest occupied level (ev):     7.4373

!    total energy              =     -14.44916639 Ry
     Harris-Foulkes estimate   =     -14.44916639 Ry
     estimated scf accuracy    <          3.5E-09 Ry

     convergence has been achieved in   3 iterations

     Forces acting on atoms (Ry/au):

     atom    1 type  1   force =    -0.00822979   -0.00822990   -0.00822989
     atom    2 type  1   force =     0.00822979    0.00822990    0.00822989

     Total force =     0.020159     Total SCF correction =     0.000014

     Entering Dynamics:    iteration =    10
                           time      =   0.0097 pico-seconds


ATOMIC_POSITIONS (alat)
Si      -0.124534234  -0.124534223  -0.124534223
Si       0.124534234   0.124534223   0.124534223


     kinetic energy (Ekin) =     0.00122323 Ry
     temperature           =   128.75483068 K 
     Ekin + Etot (const)   =   -14.44794316 Ry

     Linear momentum :    0.0000000000    0.0000000000    0.0000000000

     Writing output data file pwscf.save

     second order wave-functions extrapolation
     NEW-OLD atomic charge density approx. for the potential

     total cpu time spent up to now is        0.4 secs

     per-process dynamical memory:     2.6 Mb

     Self-consistent Calculation

     iteration #  1     ecut=     8.00 Ry     beta=0.70
     Davidson diagonalization with overlap
     ethr =  1.00E-06,  avg # of iterations =  2.0

     Threshold (ethr) on eigenvalues was too large:
     Diagonalizing with lowered threshold

     Davidson diagonalization with overlap
     ethr =  2.25E-08,  avg # of iterations =  1.0

     total cpu time spent up to now is        0.4 secs

     total energy              =     -14.44927134 Ry
     Harris-Foulkes estimate   =     -14.44927130 Ry
     estimated scf accuracy    <       0.00000180 Ry

     iteration #  2     ecut=     8.00 Ry     beta=0.70
     Davidson diagonalization with overlap
     ethr =  2.26E-08,  avg # of iterations =  2.0

     total cpu time spent up to now is        0.4 secs

     total energy              =     -14.44927154 Ry
     Harris-Foulkes estimate   =     -14.44927147 Ry
     estimated scf accuracy    <       0.00000014 Ry

     iteration #  3     ecut=     8.00 Ry     beta=0.70
     Davidson diagonalization with overlap
     ethr =  1.76E-09,  avg # of iterations =  1.0

     total cpu time spent up to now is        0.4 secs

     End of self-consistent calculation

          k = 0.0000 0.0000 0.0000 (   113 PWs)   bands (ev):

    -4.7614   7.3402   7.4223   7.4223

     highest occupied level (ev):     7.4223

!    total energy              =     -14.44927154 Ry
     Harris-Foulkes estimate   =     -14.44927154 Ry
     estimated scf accuracy    <          3.9E-09 Ry

     convergence has been achieved in   3 iterations

     Forces acting on atoms (Ry/au):

     atom    1 type  1   force =    -0.00530194   -0.00530206   -0.00530206
     atom    2 type  1   force =     0.00530194    0.00530206    0.00530206

     Total force =     0.012987     Total SCF correction =     0.000015

     Entering Dynamics:    iteration =    11
                           time      =   0.0106 pico-seconds


ATOMIC_POSITIONS (alat)
Si      -0.124796639  -0.124796628  -0.124796628
Si       0.124796639   0.124796628   0.124796628


     kinetic energy (Ekin) =     0.00132784 Ry
     temperature           =   139.76641149 K 
     Ekin + Etot (const)   =   -14.44794370 Ry

     Linear momentum :    0.0000000000    0.0000000000    0.0000000000

     Writing output data file pwscf.save

     second order wave-functions extrapolation
     NEW-OLD atomic charge density approx. for the potential

     total cpu time spent up to now is        0.4 secs

     per-process dynamical memory:     2.6 Mb

     Self-consistent Calculation

     iteration #  1     ecut=     8.00 Ry     beta=0.70
     Davidson diagonalization with overlap
     ethr =  1.00E-06,  avg # of iterations =  2.0

     Threshold (ethr) on eigenvalues was too large:
     Diagonalizing with lowered threshold

     Davidson diagonalization with overlap
     ethr =  2.40E-08,  avg # of iterations =  1.0

     total cpu time spent up to now is        0.4 secs

     total energy              =     -14.44933234 Ry
     Harris-Foulkes estimate   =     -14.44933231 Ry
     estimated scf accuracy    <       0.00000193 Ry

     iteration #  2     ecut=     8.00 Ry     beta=0.70
     Davidson diagonalization with overlap
     ethr =  2.41E-08,  avg # of iterations =  2.0

     total cpu time spent up to now is        0.4 secs

     total energy              =     -14.44933255 Ry
     Harris-Foulkes estimate   =     -14.44933248 Ry
     estimated scf accuracy    <       0.00000015 Ry

     iteration #  3     ecut=     8.00 Ry     beta=0.70
     Davidson diagonalization with overlap
     ethr =  1.87E-09,  avg # of iterations =  1.0

     total cpu time spent up to now is        0.4 secs

     End of self-consistent calculation

          k = 0.0000 0.0000 0.0000 (   113 PWs)   bands (ev):

    -4.7613   7.3711   7.4068   7.4068

     highest occupied level (ev):     7.4068

!    total energy              =     -14.44933256 Ry
     Harris-Foulkes estimate   =     -14.44933255 Ry
     estimated scf accuracy    <          4.3E-09 Ry

     convergence has been achieved in   3 iterations

     Forces acting on atoms (Ry/au):

     atom    1 type  1   force =    -0.00230222   -0.00230235   -0.00230235
     atom    2 type  1   force =     0.00230222    0.00230235    0.00230235

     Total force =     0.005639     Total SCF correction =     0.000015

     Entering Dynamics:    iteration =    12
                           time      =   0.0116 pico-seconds


ATOMIC_POSITIONS (alat)
Si      -0.125062579  -0.125062567  -0.125062567
Si       0.125062579   0.125062567   0.125062567


     kinetic energy (Ekin) =     0.00138852 Ry
     temperature           =   146.15270638 K 
     Ekin + Etot (const)   =   -14.44794404 Ry

     Linear momentum :    0.0000000000    0.0000000000    0.0000000000

     Writing output data file pwscf.save

     second order wave-functions extrapolation
     NEW-OLD atomic charge density approx. for the potential

     total cpu time spent up to now is        0.5 secs

     per-process dynamical memory:     2.6 Mb

     Self-consistent Calculation

     iteration #  1     ecut=     8.00 Ry     beta=0.70
     Davidson diagonalization with overlap
     ethr =  1.00E-06,  avg # of iterations =  2.0

     Threshold (ethr) on eigenvalues was too large:
     Diagonalizing with lowered threshold

     Davidson diagonalization with overlap
     ethr =  2.48E-08,  avg # of iterations =  1.0

     total cpu time spent up to now is        0.5 secs

     total energy              =     -14.44934529 Ry
     Harris-Foulkes estimate   =     -14.44934527 Ry
     estimated scf accuracy    <       0.00000199 Ry

     iteration #  2     ecut=     8.00 Ry     beta=0.70
     Davidson diagonalization with overlap
     ethr =  2.48E-08,  avg # of iterations =  2.0

     total cpu time spent up to now is        0.5 secs

     total energy              =     -14.44934552 Ry
     Harris-Foulkes estimate   =     -14.44934544 Ry
     estimated scf accuracy    <       0.00000015 Ry

     iteration #  3     ecut=     8.00 Ry     beta=0.70
     Davidson diagonalization with overlap
     ethr =  1.92E-09,  avg # of iterations =  1.0

     total cpu time spent up to now is        0.5 secs

     End of self-consistent calculation

          k = 0.0000 0.0000 0.0000 (   113 PWs)   bands (ev):

    -4.7612   7.3911   7.3911   7.4023

     highest occupied level (ev):     7.4023

!    total energy              =     -14.44934552 Ry
     Harris-Foulkes estimate   =     -14.44934552 Ry
     estimated scf accuracy    <          4.5E-09 Ry

     convergence has been achieved in   3 iterations

     Forces acting on atoms (Ry/au):

     atom    1 type  1   force =     0.00071569    0.00071550    0.00071550
     atom    2 type  1   force =    -0.00071569   -0.00071550   -0.00071550

     Total force =     0.001753     Total SCF correction =     0.000016

     Entering Dynamics:    iteration =    13
                           time      =   0.0126 pico-seconds


ATOMIC_POSITIONS (alat)
Si      -0.125327420  -0.125327408  -0.125327407
Si       0.125327420   0.125327408   0.125327407


     kinetic energy (Ekin) =     0.00140135 Ry
     temperature           =   147.50328351 K 
     Ekin + Etot (const)   =   -14.44794418 Ry

     Linear momentum :    0.0000000000    0.0000000000    0.0000000000

     Writing output data file pwscf.save

     second order wave-functions extrapolation
     NEW-OLD atomic charge density approx. for the potential

     total cpu time spent up to now is        0.5 secs

     per-process dynamical memory:     2.6 Mb

     Self-consistent Calculation

     iteration #  1     ecut=     8.00 Ry     beta=0.70
     Davidson diagonalization with overlap
     ethr =  1.00E-06,  avg # of iterations =  2.0

     Threshold (ethr) on eigenvalues was too large:
     Diagonalizing with lowered threshold

     Davidson diagonalization with overlap
     ethr =  2.46E-08,  avg # of iterations =  1.0

     total cpu time spent up to now is        0.5 secs

     total energy              =     -14.44930967 Ry
     Harris-Foulkes estimate   =     -14.44930966 Ry
     estimated scf accuracy    <       0.00000197 Ry

     iteration #  2     ecut=     8.00 Ry     beta=0.70
     Davidson diagonalization with overlap
     ethr =  2.47E-08,  avg # of iterations =  2.0

     total cpu time spent up to now is        0.5 secs

     total energy              =     -14.44930989 Ry
     Harris-Foulkes estimate   =     -14.44930982 Ry
     estimated scf accuracy    <       0.00000015 Ry

     iteration #  3     ecut=     8.00 Ry     beta=0.70
     Davidson diagonalization with overlap
     ethr =  1.90E-09,  avg # of iterations =  1.0

     total cpu time spent up to now is        0.5 secs

     End of self-consistent calculation

          k = 0.0000 0.0000 0.0000 (   113 PWs)   bands (ev):

    -4.7613   7.3756   7.3756   7.4335

     highest occupied level (ev):     7.4335

!    total energy              =     -14.44930990 Ry
     Harris-Foulkes estimate   =     -14.44930990 Ry
     estimated scf accuracy    <          4.5E-09 Ry

     convergence has been achieved in   3 iterations

     Forces acting on atoms (Ry/au):

     atom    1 type  1   force =     0.00369901    0.00369886    0.00369886
     atom    2 type  1   force =    -0.00369901   -0.00369886   -0.00369886

     Total force =     0.009060     Total SCF correction =     0.000016

     Entering Dynamics:    iteration =    14
                           time      =   0.0135 pico-seconds


ATOMIC_POSITIONS (alat)
Si      -0.125586583  -0.125586571  -0.125586570
Si       0.125586583   0.125586571   0.125586570


     kinetic energy (Ekin) =     0.00136580 Ry
     temperature           =   143.76125683 K 
     Ekin + Etot (const)   =   -14.44794410 Ry

     Linear momentum :    0.0000000000    0.0000000000    0.0000000000

     Writing output data file pwscf.save

     second order wave-functions extrapolation
     NEW-OLD atomic charge density approx. for the potential

     total cpu time spent up to now is        0.5 secs

     per-process dynamical memory:     2.6 Mb

     Self-consistent Calculation

     iteration #  1     ecut=     8.00 Ry     beta=0.70
     Davidson diagonalization with overlap
     ethr =  1.00E-06,  avg # of iterations =  2.0

     Threshold (ethr) on eigenvalues was too large:
     Diagonalizing with lowered threshold

     Davidson diagonalization with overlap
     ethr =  2.36E-08,  avg # of iterations =  1.0

     total cpu time spent up to now is        0.5 secs

     total energy              =     -14.44922826 Ry
     Harris-Foulkes estimate   =     -14.44922826 Ry
     estimated scf accuracy    <       0.00000189 Ry

     iteration #  2     ecut=     8.00 Ry     beta=0.70
     Davidson diagonalization with overlap
     ethr =  2.37E-08,  avg # of iterations =  2.0

     total cpu time spent up to now is        0.5 secs

     total energy              =     -14.44922848 Ry
     Harris-Foulkes estimate   =     -14.44922841 Ry
     estimated scf accuracy    <       0.00000014 Ry

     iteration #  3     ecut=     8.00 Ry     beta=0.70
     Davidson diagonalization with overlap
     ethr =  1.81E-09,  avg # of iterations =  1.0

     total cpu time spent up to now is        0.5 secs

     End of self-consistent calculation

          k = 0.0000 0.0000 0.0000 (   113 PWs)   bands (ev):

    -4.7615   7.3604   7.3604   7.4641

     highest occupied level (ev):     7.4641

!    total energy              =     -14.44922848 Ry
     Harris-Foulkes estimate   =     -14.44922848 Ry
     estimated scf accuracy    <          4.4E-09 Ry

     convergence has been achieved in   3 iterations

     Forces acting on atoms (Ry/au):

     atom    1 type  1   force =     0.00659752    0.00659737    0.00659736
     atom    2 type  1   force =    -0.00659752   -0.00659737   -0.00659736

     Total force =     0.016160     Total SCF correction =     0.000016

     Entering Dynamics:    iteration =    15
                           time      =   0.0145 pico-seconds


ATOMIC_POSITIONS (alat)
Si      -0.125835620  -0.125835607  -0.125835606
Si       0.125835620   0.125835607   0.125835606


     kinetic energy (Ekin) =     0.00128465 Ry
     temperature           =   135.22017979 K 
     Ekin + Etot (const)   =   -14.44794383 Ry

     Linear momentum :    0.0000000000    0.0000000000    0.0000000000

     Writing output data file pwscf.save

     second order wave-functions extrapolation
     NEW-OLD atomic charge density approx. for the potential

     total cpu time spent up to now is        0.6 secs

     per-process dynamical memory:     2.6 Mb

     Self-consistent Calculation

     iteration #  1     ecut=     8.00 Ry     beta=0.70
     Davidson diagonalization with overlap
     ethr =  1.00E-06,  avg # of iterations =  2.0

     Threshold (ethr) on eigenvalues was too large:
     Diagonalizing with lowered threshold

     Davidson diagonalization with overlap
     ethr =  2.19E-08,  avg # of iterations =  1.0

     total cpu time spent up to now is        0.6 secs

     total energy              =     -14.44910697 Ry
     Harris-Foulkes estimate   =     -14.44910697 Ry
     estimated scf accuracy    <       0.00000175 Ry

     iteration #  2     ecut=     8.00 Ry     beta=0.70
     Davidson diagonalization with overlap
     ethr =  2.19E-08,  avg # of iterations =  2.0

     total cpu time spent up to now is        0.6 secs

     total energy              =     -14.44910717 Ry
     Harris-Foulkes estimate   =     -14.44910710 Ry
     estimated scf accuracy    <       0.00000013 Ry

     iteration #  3     ecut=     8.00 Ry     beta=0.70
     Davidson diagonalization with overlap
     ethr =  1.67E-09,  avg # of iterations =  1.0

     total cpu time spent up to now is        0.6 secs

     End of self-consistent calculation

          k = 0.0000 0.0000 0.0000 (   113 PWs)   bands (ev):

    -4.7617   7.3458   7.3458   7.4936

     highest occupied level (ev):     7.4936

!    total energy              =     -14.44910717 Ry
     Harris-Foulkes estimate   =     -14.44910717 Ry
     estimated scf accuracy    <          4.1E-09 Ry

     convergence has been achieved in   3 iterations

     Forces acting on atoms (Ry/au):

     atom    1 type  1   force =     0.00936354    0.00936339    0.00936338
     atom    2 type  1   force =    -0.00936354   -0.00936339   -0.00936338

     Total force =     0.022936     Total SCF correction =     0.000015

     Entering Dynamics:    iteration =    16
                           time      =   0.0155 pico-seconds


ATOMIC_POSITIONS (alat)
Si      -0.126070284  -0.126070272  -0.126070271
Si       0.126070284   0.126070272   0.126070271


     kinetic energy (Ekin) =     0.00116378 Ry
     temperature           =   122.49719069 K 
     Ekin + Etot (const)   =   -14.44794339 Ry

     Linear momentum :    0.0000000000    0.0000000000    0.0000000000

     Writing output data file pwscf.save

     second order wave-functions extrapolation
     NEW-OLD atomic charge density approx. for the potential

     total cpu time spent up to now is        0.6 secs

     per-process dynamical memory:     2.6 Mb

     Self-consistent Calculation

     iteration #  1     ecut=     8.00 Ry     beta=0.70
     Davidson diagonalization with overlap
     ethr =  1.00E-06,  avg # of iterations =  2.0

     Threshold (ethr) on eigenvalues was too large:
     Diagonalizing with lowered threshold

     Davidson diagonalization with overlap
     ethr =  1.95E-08,  avg # of iterations =  1.0

     total cpu time spent up to now is        0.6 secs

     total energy              =     -14.44895429 Ry
     Harris-Foulkes estimate   =     -14.44895430 Ry
     estimated scf accuracy    <       0.00000156 Ry

     iteration #  2     ecut=     8.00 Ry     beta=0.70
     Davidson diagonalization with overlap
     ethr =  1.95E-08,  avg # of iterations =  2.0

     total cpu time spent up to now is        0.6 secs

     total energy              =     -14.44895447 Ry
     Harris-Foulkes estimate   =     -14.44895441 Ry
     estimated scf accuracy    <       0.00000012 Ry

     iteration #  3     ecut=     8.00 Ry     beta=0.70
     Davidson diagonalization with overlap
     ethr =  1.48E-09,  avg # of iterations =  1.0

     total cpu time spent up to now is        0.6 secs

     End of self-consistent calculation

          k = 0.0000 0.0000 0.0000 (   113 PWs)   bands (ev):

    -4.7620   7.3321   7.3321   7.5213

     highest occupied level (ev):     7.5213

!    total energy              =     -14.44895448 Ry
     Harris-Foulkes estimate   =     -14.44895447 Ry
     estimated scf accuracy    <          3.7E-09 Ry

     convergence has been achieved in   3 iterations

     Forces acting on atoms (Ry/au):

     atom    1 type  1   force =     0.01195289    0.01195274    0.01195273
     atom    2 type  1   force =    -0.01195289   -0.01195274   -0.01195273

     Total force =     0.029278     Total SCF correction =     0.000014

     Entering Dynamics:    iteration =    17
                           time      =   0.0164 pico-seconds


ATOMIC_POSITIONS (alat)
Si      -0.126286601  -0.126286589  -0.126286588
Si       0.126286601   0.126286589   0.126286588


     kinetic energy (Ekin) =     0.00101166 Ry
     temperature           =   106.48542543 K 
     Ekin + Etot (const)   =   -14.44794282 Ry

     Linear momentum :    0.0000000000    0.0000000000    0.0000000000

     Writing output data file pwscf.save

     second order wave-functions extrapolation
     NEW-OLD atomic charge density approx. for the potential

     total cpu time spent up to now is        0.6 secs

     per-process dynamical memory:     2.6 Mb

     Self-consistent Calculation

     iteration #  1     ecut=     8.00 Ry     beta=0.70
     Davidson diagonalization with overlap
     ethr =  1.00E-06,  avg # of iterations =  2.0

     Threshold (ethr) on eigenvalues was too large:
     Diagonalizing with lowered threshold

     Davidson diagonalization with overlap
     ethr =  1.66E-08,  avg # of iterations =  1.0

     total cpu time spent up to now is        0.6 secs

     total energy              =     -14.44878078 Ry
     Harris-Foulkes estimate   =     -14.44878079 Ry
     estimated scf accuracy    <       0.00000133 Ry

     iteration #  2     ecut=     8.00 Ry     beta=0.70
     Davidson diagonalization with overlap
     ethr =  1.66E-08,  avg # of iterations =  2.0

     total cpu time spent up to now is        0.6 secs

     total energy              =     -14.44878094 Ry
     Harris-Foulkes estimate   =     -14.44878089 Ry
     estimated scf accuracy    <       0.00000010 Ry

     iteration #  3     ecut=     8.00 Ry     beta=0.70
     Davidson diagonalization with overlap
     ethr =  1.25E-09,  avg # of iterations =  1.0

     total cpu time spent up to now is        0.6 secs

     End of self-consistent calculation

          k = 0.0000 0.0000 0.0000 (   113 PWs)   bands (ev):

    -4.7623   7.3195   7.3195   7.5470

     highest occupied level (ev):     7.5470

!    total energy              =     -14.44878094 Ry
     Harris-Foulkes estimate   =     -14.44878094 Ry
     estimated scf accuracy    <          3.2E-09 Ry

     convergence has been achieved in   3 iterations

     Forces acting on atoms (Ry/au):

     atom    1 type  1   force =     0.01432531    0.01432517    0.01432515
     atom    2 type  1   force =    -0.01432531   -0.01432517   -0.01432515

     Total force =     0.035089     Total SCF correction =     0.000013

     Entering Dynamics:    iteration =    18
                           time      =   0.0174 pico-seconds


ATOMIC_POSITIONS (alat)
Si      -0.126480929  -0.126480918  -0.126480917
Si       0.126480929   0.126480918   0.126480917


     kinetic energy (Ekin) =     0.00083879 Ry
     temperature           =    88.28938301 K 
     Ekin + Etot (const)   =   -14.44794215 Ry

     Linear momentum :    0.0000000000    0.0000000000    0.0000000000

     Writing output data file pwscf.save

     second order wave-functions extrapolation
     NEW-OLD atomic charge density approx. for the potential

     total cpu time spent up to now is        0.7 secs

     per-process dynamical memory:     2.6 Mb

     Self-consistent Calculation

     iteration #  1     ecut=     8.00 Ry     beta=0.70
     Davidson diagonalization with overlap
     ethr =  1.00E-06,  avg # of iterations =  2.0

     Threshold (ethr) on eigenvalues was too large:
     Diagonalizing with lowered threshold

     Davidson diagonalization with overlap
     ethr =  1.34E-08,  avg # of iterations =  1.0

     total cpu time spent up to now is        0.7 secs

     total energy              =     -14.44859825 Ry
     Harris-Foulkes estimate   =     -14.44859826 Ry
     estimated scf accuracy    <       0.00000108 Ry

     iteration #  2     ecut=     8.00 Ry     beta=0.70
     Davidson diagonalization with overlap
     ethr =  1.34E-08,  avg # of iterations =  2.0

     total cpu time spent up to now is        0.7 secs

     total energy              =     -14.44859838 Ry
     Harris-Foulkes estimate   =     -14.44859834 Ry
     estimated scf accuracy    <       0.00000008 Ry

     iteration #  3     ecut=     8.00 Ry     beta=0.70
     Davidson diagonalization with overlap
     ethr =  1.01E-09,  avg # of iterations =  1.0

     total cpu time spent up to now is        0.7 secs

     End of self-consistent calculation

          k = 0.0000 0.0000 0.0000 (   113 PWs)   bands (ev):

    -4.7626   7.3082   7.3082   7.5700

     highest occupied level (ev):     7.5700

!    total energy              =     -14.44859838 Ry
     Harris-Foulkes estimate   =     -14.44859838 Ry
     estimated scf accuracy    <          2.6E-09 Ry

     convergence has been achieved in   3 iterations

     Forces acting on atoms (Ry/au):

     atom    1 type  1   force =     0.01644477    0.01644464    0.01644463
     atom    2 type  1   force =    -0.01644477   -0.01644464   -0.01644463

     Total force =     0.040281     Total SCF correction =     0.000012

     Entering Dynamics:    iteration =    19
                           time      =   0.0184 pico-seconds


ATOMIC_POSITIONS (alat)
Si      -0.126650016  -0.126650006  -0.126650004
Si       0.126650016   0.126650006   0.126650004


     kinetic energy (Ekin) =     0.00065694 Ry
     temperature           =    69.14827996 K 
     Ekin + Etot (const)   =   -14.44794144 Ry

     Linear momentum :    0.0000000000    0.0000000000    0.0000000000

     Writing output data file pwscf.save

     second order wave-functions extrapolation
     NEW-OLD atomic charge density approx. for the potential

     total cpu time spent up to now is        0.7 secs

     per-process dynamical memory:     2.6 Mb

     Self-consistent Calculation

     iteration #  1     ecut=     8.00 Ry     beta=0.70
     Davidson diagonalization with overlap
     ethr =  1.00E-06,  avg # of iterations =  2.0

     Threshold (ethr) on eigenvalues was too large:
     Diagonalizing with lowered threshold

     Davidson diagonalization with overlap
     ethr =  1.02E-08,  avg # of iterations =  1.0

     total cpu time spent up to now is        0.7 secs

     total energy              =     -14.44841901 Ry
     Harris-Foulkes estimate   =     -14.44841902 Ry
     estimated scf accuracy    <       0.00000082 Ry

     iteration #  2     ecut=     8.00 Ry     beta=0.70
     Davidson diagonalization with overlap
     ethr =  1.02E-08,  avg # of iterations =  2.0

     total cpu time spent up to now is        0.7 secs

     total energy              =     -14.44841911 Ry
     Harris-Foulkes estimate   =     -14.44841908 Ry
     estimated scf accuracy    <       0.00000006 Ry

     iteration #  3     ecut=     8.00 Ry     beta=0.70
     Davidson diagonalization with overlap
     ethr =  7.63E-10,  avg # of iterations =  1.0

     total cpu time spent up to now is        0.7 secs

     End of self-consistent calculation

          k = 0.0000 0.0000 0.0000 (   113 PWs)   bands (ev):

    -4.7630   7.2984   7.2984   7.5901

     highest occupied level (ev):     7.5901

!    total energy              =     -14.44841911 Ry
     Harris-Foulkes estimate   =     -14.44841911 Ry
     estimated scf accuracy    <          2.0E-09 Ry

     convergence has been achieved in   3 iterations

     Forces acting on atoms (Ry/au):

     atom    1 type  1   force =     0.01827998    0.01827986    0.01827984
     atom    2 type  1   force =    -0.01827998   -0.01827986   -0.01827984

     Total force =     0.044776     Total SCF correction =     0.000011

     Entering Dynamics:    iteration =    20
                           time      =   0.0194 pico-seconds


ATOMIC_POSITIONS (alat)
Si      -0.126791044  -0.126791035  -0.126791033
Si       0.126791044   0.126791035   0.126791033


     kinetic energy (Ekin) =     0.00047837 Ry
     temperature           =    50.35250244 K 
     Ekin + Etot (const)   =   -14.44794074 Ry

     Linear momentum :    0.0000000000    0.0000000000    0.0000000000

     Writing output data file pwscf.save

     second order wave-functions extrapolation
     NEW-OLD atomic charge density approx. for the potential

     total cpu time spent up to now is        0.7 secs

     per-process dynamical memory:     2.6 Mb

     Self-consistent Calculation

     iteration #  1     ecut=     8.00 Ry     beta=0.70
     Davidson diagonalization with overlap
     ethr =  1.00E-06,  avg # of iterations =  1.0

     Threshold (ethr) on eigenvalues was too large:
     Diagonalizing with lowered threshold

     Davidson diagonalization with overlap
     ethr =  6.83E-09,  avg # of iterations =  1.0

     total cpu time spent up to now is        0.7 secs

     total energy              =     -14.44825505 Ry
     Harris-Foulkes estimate   =     -14.44825505 Ry
     estimated scf accuracy    <       0.00000056 Ry

     iteration #  2     ecut=     8.00 Ry     beta=0.70
     Davidson diagonalization with overlap
     ethr =  6.98E-09,  avg # of iterations =  2.0

     total cpu time spent up to now is        0.7 secs

     total energy              =     -14.44825511 Ry
     Harris-Foulkes estimate   =     -14.44825509 Ry
     estimated scf accuracy    <       0.00000004 Ry

     iteration #  3     ecut=     8.00 Ry     beta=0.70
     Davidson diagonalization with overlap
     ethr =  5.08E-10,  avg # of iterations =  1.0

     total cpu time spent up to now is        0.7 secs

     End of self-consistent calculation

          k = 0.0000 0.0000 0.0000 (   113 PWs)   bands (ev):

    -4.7633   7.2902   7.2902   7.6069

     highest occupied level (ev):     7.6069

!    total energy              =     -14.44825511 Ry
     Harris-Foulkes estimate   =     -14.44825511 Ry
     estimated scf accuracy    <          1.1E-09 Ry

     convergence has been achieved in   3 iterations

     Forces acting on atoms (Ry/au):

     atom    1 type  1   force =     0.01980437    0.01980426    0.01980424
     atom    2 type  1   force =    -0.01980437   -0.01980426   -0.01980424

     Total force =     0.048510     Total SCF correction =     0.000009

     Entering Dynamics:    iteration =    21
                           time      =   0.0203 pico-seconds


ATOMIC_POSITIONS (alat)
Si      -0.126901674  -0.126901666  -0.126901664
Si       0.126901674   0.126901666   0.126901664


     kinetic energy (Ekin) =     0.00031502 Ry
     temperature           =    33.15869740 K 
     Ekin + Etot (const)   =   -14.44794009 Ry

     Linear momentum :    0.0000000000    0.0000000000    0.0000000000

     Writing output data file pwscf.save

     second order wave-functions extrapolation
     NEW-OLD atomic charge density approx. for the potential

     total cpu time spent up to now is        0.8 secs

     per-process dynamical memory:     2.6 Mb

     Self-consistent Calculation

     iteration #  1     ecut=     8.00 Ry     beta=0.70
     Davidson diagonalization with overlap
     ethr =  1.00E-06,  avg # of iterations =  1.0

     Threshold (ethr) on eigenvalues was too large:
     Diagonalizing with lowered threshold

     Davidson diagonalization with overlap
     ethr =  4.21E-09,  avg # of iterations =  1.0

     total cpu time spent up to now is        0.8 secs

     total energy              =     -14.44811725 Ry
     Harris-Foulkes estimate   =     -14.44811725 Ry
     estimated scf accuracy    <       0.00000034 Ry

     iteration #  2     ecut=     8.00 Ry     beta=0.70
     Davidson diagonalization with overlap
     ethr =  4.30E-09,  avg # of iterations =  2.0

     total cpu time spent up to now is        0.8 secs

     total energy              =     -14.44811728 Ry
     Harris-Foulkes estimate   =     -14.44811727 Ry
     estimated scf accuracy    <       0.00000002 Ry

     iteration #  3     ecut=     8.00 Ry     beta=0.70
     Davidson diagonalization with overlap
     ethr =  3.12E-10,  avg # of iterations =  1.0

     total cpu time spent up to now is        0.8 secs

     End of self-consistent calculation

          k = 0.0000 0.0000 0.0000 (   113 PWs)   bands (ev):

    -4.7635   7.2838   7.2838   7.6200

     highest occupied level (ev):     7.6200

!    total energy              =     -14.44811728 Ry
     Harris-Foulkes estimate   =     -14.44811728 Ry
     estimated scf accuracy    <          6.9E-10 Ry

     convergence has been achieved in   3 iterations

     Forces acting on atoms (Ry/au):

     atom    1 type  1   force =     0.02099586    0.02099577    0.02099574
     atom    2 type  1   force =    -0.02099586   -0.02099577   -0.02099574

     Total force =     0.051429     Total SCF correction =     0.000007

     Entering Dynamics:    iteration =    22
                           time      =   0.0213 pico-seconds


ATOMIC_POSITIONS (alat)
Si      -0.126980076  -0.126980069  -0.126980067
Si       0.126980076   0.126980069   0.126980067


     kinetic energy (Ekin) =     0.00017774 Ry
     temperature           =    18.70891711 K 
     Ekin + Etot (const)   =   -14.44793954 Ry

     Linear momentum :    0.0000000000    0.0000000000    0.0000000000

     Writing output data file pwscf.save

     second order wave-functions extrapolation
     NEW-OLD atomic charge density approx. for the potential

     total cpu time spent up to now is        0.8 secs

     per-process dynamical memory:     2.6 Mb

     Self-consistent Calculation

     iteration #  1     ecut=     8.00 Ry     beta=0.70
     Davidson diagonalization with overlap
     ethr =  1.00E-06,  avg # of iterations =  1.0

     Threshold (ethr) on eigenvalues was too large:
     Diagonalizing with lowered threshold

     Davidson diagonalization with overlap
     ethr =  2.11E-09,  avg # of iterations =  1.0

     total cpu time spent up to now is        0.8 secs

     total energy              =     -14.44801472 Ry
     Harris-Foulkes estimate   =     -14.44801472 Ry
     estimated scf accuracy    <       0.00000017 Ry

     iteration #  2     ecut=     8.00 Ry     beta=0.70
     Davidson diagonalization with overlap
     ethr =  2.16E-09,  avg # of iterations =  2.0

     total cpu time spent up to now is        0.8 secs

     total energy              =     -14.44801473 Ry
     Harris-Foulkes estimate   =     -14.44801473 Ry
     estimated scf accuracy    <       0.00000001 Ry

     iteration #  3     ecut=     8.00 Ry     beta=0.70
     Davidson diagonalization with overlap
     ethr =  1.57E-10,  avg # of iterations =  1.0

     total cpu time spent up to now is        0.8 secs

     End of self-consistent calculation

          k = 0.0000 0.0000 0.0000 (   113 PWs)   bands (ev):

    -4.7637   7.2793   7.2793   7.6293

     highest occupied level (ev):     7.6293

!    total energy              =     -14.44801473 Ry
     Harris-Foulkes estimate   =     -14.44801473 Ry
     estimated scf accuracy    <          3.5E-10 Ry

     convergence has been achieved in   3 iterations

     Forces acting on atoms (Ry/au):

     atom    1 type  1   force =     0.02183788    0.02183781    0.02183778
     atom    2 type  1   force =    -0.02183788   -0.02183781   -0.02183778

     Total force =     0.053492     Total SCF correction =     0.000005

     Entering Dynamics:    iteration =    23
                           time      =   0.0223 pico-seconds


ATOMIC_POSITIONS (alat)
Si      -0.127024958  -0.127024953  -0.127024951
Si       0.127024958   0.127024953   0.127024951


     kinetic energy (Ekin) =     0.00007560 Ry
     temperature           =     7.95793145 K 
     Ekin + Etot (const)   =   -14.44793913 Ry

     Linear momentum :    0.0000000000    0.0000000000    0.0000000000

     Writing output data file pwscf.save

     second order wave-functions extrapolation
     NEW-OLD atomic charge density approx. for the potential

     total cpu time spent up to now is        0.8 secs

     per-process dynamical memory:     2.6 Mb

     Self-consistent Calculation

     iteration #  1     ecut=     8.00 Ry     beta=0.70
     Davidson diagonalization with overlap
     ethr =  1.00E-06,  avg # of iterations =  1.0

     Threshold (ethr) on eigenvalues was too large:
     Diagonalizing with lowered threshold

     Davidson diagonalization with overlap
     ethr =  6.93E-10,  avg # of iterations =  1.0

     total cpu time spent up to now is        0.8 secs

     total energy              =     -14.44795421 Ry
     Harris-Foulkes estimate   =     -14.44795421 Ry
     estimated scf accuracy    <       0.00000006 Ry

     iteration #  2     ecut=     8.00 Ry     beta=0.70
     Davidson diagonalization with overlap
     ethr =  7.08E-10,  avg # of iterations =  2.0

     total cpu time spent up to now is        0.8 secs

     End of self-consistent calculation

          k = 0.0000 0.0000 0.0000 (   113 PWs)   bands (ev):

    -4.7638   7.2767   7.2767   7.6347

     highest occupied level (ev):     7.6347

!    total energy              =     -14.44795421 Ry
     Harris-Foulkes estimate   =     -14.44795421 Ry
     estimated scf accuracy    <          4.1E-09 Ry

     convergence has been achieved in   2 iterations

     Forces acting on atoms (Ry/au):

     atom    1 type  1   force =     0.02232184    0.02232178    0.02232176
     atom    2 type  1   force =    -0.02232184   -0.02232178   -0.02232176

     Total force =     0.054677     Total SCF correction =     0.000008

     Entering Dynamics:    iteration =    24
                           time      =   0.0232 pico-seconds


ATOMIC_POSITIONS (alat)
Si      -0.127035577  -0.127035574  -0.127035572
Si       0.127035577   0.127035574   0.127035572


     kinetic energy (Ekin) =     0.00001532 Ry
     temperature           =     1.61292236 K 
     Ekin + Etot (const)   =   -14.44793889 Ry

     Linear momentum :    0.0000000000    0.0000000000    0.0000000000

     Writing output data file pwscf.save

     second order wave-functions extrapolation
     NEW-OLD atomic charge density approx. for the potential

     total cpu time spent up to now is        0.9 secs

     per-process dynamical memory:     2.6 Mb

     Self-consistent Calculation

     iteration #  1     ecut=     8.00 Ry     beta=0.70
     Davidson diagonalization with overlap
     ethr =  1.00E-06,  avg # of iterations =  1.0

     Threshold (ethr) on eigenvalues was too large:
     Diagonalizing with lowered threshold

     Davidson diagonalization with overlap
     ethr =  3.66E-11,  avg # of iterations =  1.0

     total cpu time spent up to now is        0.9 secs

     End of self-consistent calculation

          k = 0.0000 0.0000 0.0000 (   113 PWs)   bands (ev):

    -4.7638   7.2761   7.2761   7.6358

     highest occupied level (ev):     7.6358

!    total energy              =     -14.44793970 Ry
     Harris-Foulkes estimate   =     -14.44793970 Ry
     estimated scf accuracy    <          3.0E-09 Ry

     convergence has been achieved in   1 iterations

     Forces acting on atoms (Ry/au):

     atom    1 type  1   force =     0.02243230    0.02243227    0.02243224
     atom    2 type  1   force =    -0.02243230   -0.02243227   -0.02243224

     Total force =     0.054948     Total SCF correction =     0.000016

     Entering Dynamics:    iteration =    25
                           time      =   0.0242 pico-seconds


ATOMIC_POSITIONS (alat)
Si      -0.127011764  -0.127011762  -0.127011761
Si       0.127011764   0.127011762   0.127011761


     kinetic energy (Ekin) =     0.00000087 Ry
     temperature           =     0.09110810 K 
     Ekin + Etot (const)   =   -14.44793883 Ry

     Linear momentum :    0.0000000000    0.0000000000    0.0000000000

     Writing output data file pwscf.save

     second order wave-functions extrapolation
     NEW-OLD atomic charge density approx. for the potential

     total cpu time spent up to now is        0.9 secs

     per-process dynamical memory:     2.6 Mb

     Self-consistent Calculation

     iteration #  1     ecut=     8.00 Ry     beta=0.70
     Davidson diagonalization with overlap
     ethr =  1.00E-06,  avg # of iterations =  1.0

     Threshold (ethr) on eigenvalues was too large:
     Diagonalizing with lowered threshold

     Davidson diagonalization with overlap
     ethr =  2.22E-10,  avg # of iterations =  1.0

     total cpu time spent up to now is        0.9 secs

     total energy              =     -14.44797214 Ry
     Harris-Foulkes estimate   =     -14.44797214 Ry
     estimated scf accuracy    <       0.00000002 Ry

     iteration #  2     ecut=     8.00 Ry     beta=0.70
     Davidson diagonalization with overlap
     ethr =  2.27E-10,  avg # of iterations =  2.0

     total cpu time spent up to now is        0.9 secs

     End of self-consistent calculation

          k = 0.0000 0.0000 0.0000 (   113 PWs)   bands (ev):

    -4.7638   7.2775   7.2775   7.6331

     highest occupied level (ev):     7.6331

!    total energy              =     -14.44797214 Ry
     Harris-Foulkes estimate   =     -14.44797214 Ry
     estimated scf accuracy    <          1.1E-09 Ry

     convergence has been achieved in   2 iterations

     Forces acting on atoms (Ry/au):

     atom    1 type  1   force =     0.02217355    0.02217353    0.02217351
     atom    2 type  1   force =    -0.02217355   -0.02217353   -0.02217351

     Total force =     0.054314     Total SCF correction =     0.000004

     Entering Dynamics:    iteration =    26
                           time      =   0.0252 pico-seconds


ATOMIC_POSITIONS (alat)
Si      -0.126953916  -0.126953916  -0.126953914
Si       0.126953916   0.126953916   0.126953914


     kinetic energy (Ekin) =     0.00003317 Ry
     temperature           =     3.49123207 K 
     Ekin + Etot (const)   =   -14.44793897 Ry

     Linear momentum :    0.0000000000    0.0000000000    0.0000000000

     Writing output data file pwscf.save

     second order wave-functions extrapolation
     NEW-OLD atomic charge density approx. for the potential

     total cpu time spent up to now is        1.0 secs

     per-process dynamical memory:     2.6 Mb

     Self-consistent Calculation

     iteration #  1     ecut=     8.00 Ry     beta=0.70
     Davidson diagonalization with overlap
     ethr =  1.00E-06,  avg # of iterations =  1.0

     Threshold (ethr) on eigenvalues was too large:
     Diagonalizing with lowered threshold

     Davidson diagonalization with overlap
     ethr =  1.15E-09,  avg # of iterations =  1.0

     total cpu time spent up to now is        1.0 secs

     total energy              =     -14.44804938 Ry
     Harris-Foulkes estimate   =     -14.44804938 Ry
     estimated scf accuracy    <       0.00000009 Ry

     iteration #  2     ecut=     8.00 Ry     beta=0.70
     Davidson diagonalization with overlap
     ethr =  1.18E-09,  avg # of iterations =  2.0

     total cpu time spent up to now is        1.0 secs

     End of self-consistent calculation

          k = 0.0000 0.0000 0.0000 (   113 PWs)   bands (ev):

    -4.7636   7.2808   7.2808   7.6261

     highest occupied level (ev):     7.6261

!    total energy              =     -14.44804939 Ry
     Harris-Foulkes estimate   =     -14.44804939 Ry
     estimated scf accuracy    <          7.0E-09 Ry

     convergence has been achieved in   2 iterations

     Forces acting on atoms (Ry/au):

     atom    1 type  1   force =     0.02154881    0.02154881    0.02154879
     atom    2 type  1   force =    -0.02154881   -0.02154881   -0.02154879

     Total force =     0.052784     Total SCF correction =     0.000012

     Entering Dynamics:    iteration =    27
                           time      =   0.0261 pico-seconds


ATOMIC_POSITIONS (alat)
Si      -0.126862992  -0.126862993  -0.126862992
Si       0.126862992   0.126862993   0.126862992


     kinetic energy (Ekin) =     0.00011009 Ry
     temperature           =    11.58787964 K 
     Ekin + Etot (const)   =   -14.44793930 Ry

     Linear momentum :    0.0000000000    0.0000000000    0.0000000000

     Writing output data file pwscf.save

     second order wave-functions extrapolation
     NEW-OLD atomic charge density approx. for the potential

     total cpu time spent up to now is        1.0 secs

     per-process dynamical memory:     2.6 Mb

     Self-consistent Calculation

     iteration #  1     ecut=     8.00 Ry     beta=0.70
     Davidson diagonalization with overlap
     ethr =  1.00E-06,  avg # of iterations =  1.0

     Threshold (ethr) on eigenvalues was too large:
     Diagonalizing with lowered threshold

     Davidson diagonalization with overlap
     ethr =  2.83E-09,  avg # of iterations =  1.0

     total cpu time spent up to now is        1.0 secs

     total energy              =     -14.44816636 Ry
     Harris-Foulkes estimate   =     -14.44816636 Ry
     estimated scf accuracy    <       0.00000023 Ry

     iteration #  2     ecut=     8.00 Ry     beta=0.70
     Davidson diagonalization with overlap
     ethr =  2.90E-09,  avg # of iterations =  2.0

     total cpu time spent up to now is        1.0 secs

     total energy              =     -14.44816638 Ry
     Harris-Foulkes estimate   =     -14.44816637 Ry
     estimated scf accuracy    <       0.00000002 Ry

     iteration #  3     ecut=     8.00 Ry     beta=0.70
     Davidson diagonalization with overlap
     ethr =  2.11E-10,  avg # of iterations =  1.0

     total cpu time spent up to now is        1.0 secs

     End of self-consistent calculation

          k = 0.0000 0.0000 0.0000 (   113 PWs)   bands (ev):

    -4.7634   7.2861   7.2861   7.6153

     highest occupied level (ev):     7.6153

!    total energy              =     -14.44816638 Ry
     Harris-Foulkes estimate   =     -14.44816638 Ry
     estimated scf accuracy    <          4.6E-10 Ry

     convergence has been achieved in   3 iterations

     Forces acting on atoms (Ry/au):

     atom    1 type  1   force =     0.02057377    0.02057380    0.02057378
     atom    2 type  1   force =    -0.02057377   -0.02057380   -0.02057378

     Total force =     0.050395     Total SCF correction =     0.000006

     Entering Dynamics:    iteration =    28
                           time      =   0.0271 pico-seconds


ATOMIC_POSITIONS (alat)
Si      -0.126740488  -0.126740491  -0.126740490
Si       0.126740488   0.126740491   0.126740490


     kinetic energy (Ekin) =     0.00022657 Ry
     temperature           =    23.84881449 K 
     Ekin + Etot (const)   =   -14.44793981 Ry

     Linear momentum :    0.0000000000    0.0000000000    0.0000000000

     Writing output data file pwscf.save

     second order wave-functions extrapolation
     NEW-OLD atomic charge density approx. for the potential

     total cpu time spent up to now is        1.0 secs

     per-process dynamical memory:     2.6 Mb

     Self-consistent Calculation

     iteration #  1     ecut=     8.00 Ry     beta=0.70
     Davidson diagonalization with overlap
     ethr =  1.00E-06,  avg # of iterations =  1.0

     Threshold (ethr) on eigenvalues was too large:
     Diagonalizing with lowered threshold

     Davidson diagonalization with overlap
     ethr =  5.17E-09,  avg # of iterations =  1.0

     total cpu time spent up to now is        1.0 secs

     total energy              =     -14.44831536 Ry
     Harris-Foulkes estimate   =     -14.44831536 Ry
     estimated scf accuracy    <       0.00000042 Ry

     iteration #  2     ecut=     8.00 Ry     beta=0.70
     Davidson diagonalization with overlap
     ethr =  5.28E-09,  avg # of iterations =  2.0

     total cpu time spent up to now is        1.0 secs

     total energy              =     -14.44831540 Ry
     Harris-Foulkes estimate   =     -14.44831538 Ry
     estimated scf accuracy    <       0.00000003 Ry

     iteration #  3     ecut=     8.00 Ry     beta=0.70
     Davidson diagonalization with overlap
     ethr =  3.83E-10,  avg # of iterations =  1.0

     total cpu time spent up to now is        1.0 secs

     End of self-consistent calculation

          k = 0.0000 0.0000 0.0000 (   113 PWs)   bands (ev):

    -4.7631   7.2932   7.2932   7.6007

     highest occupied level (ev):     7.6007

!    total energy              =     -14.44831540 Ry
     Harris-Foulkes estimate   =     -14.44831540 Ry
     estimated scf accuracy    <          8.5E-10 Ry

     convergence has been achieved in   3 iterations

     Forces acting on atoms (Ry/au):

     atom    1 type  1   force =     0.01925102    0.01925106    0.01925104
     atom    2 type  1   force =    -0.01925102   -0.01925106   -0.01925104

     Total force =     0.047155     Total SCF correction =     0.000008

     Entering Dynamics:    iteration =    29
                           time      =   0.0281 pico-seconds


ATOMIC_POSITIONS (alat)
Si      -0.126588435  -0.126588440  -0.126588438
Si       0.126588435   0.126588440   0.126588438


     kinetic energy (Ekin) =     0.00037495 Ry
     temperature           =    39.46666858 K 
     Ekin + Etot (const)   =   -14.44794045 Ry

     Linear momentum :    0.0000000000    0.0000000000    0.0000000000

     Writing output data file pwscf.save

     second order wave-functions extrapolation
     NEW-OLD atomic charge density approx. for the potential

     total cpu time spent up to now is        1.0 secs

     per-process dynamical memory:     2.6 Mb

     Self-consistent Calculation

     iteration #  1     ecut=     8.00 Ry     beta=0.70
     Davidson diagonalization with overlap
     ethr =  1.00E-06,  avg # of iterations =  1.0

     Threshold (ethr) on eigenvalues was too large:
     Diagonalizing with lowered threshold

     Davidson diagonalization with overlap
     ethr =  7.94E-09,  avg # of iterations =  1.0

     total cpu time spent up to now is        1.1 secs

     total energy              =     -14.44848651 Ry
     Harris-Foulkes estimate   =     -14.44848651 Ry
     estimated scf accuracy    <       0.00000065 Ry

     iteration #  2     ecut=     8.00 Ry     beta=0.70
     Davidson diagonalization with overlap
     ethr =  8.12E-09,  avg # of iterations =  2.0

     total cpu time spent up to now is        1.1 secs

     total energy              =     -14.44848658 Ry
     Harris-Foulkes estimate   =     -14.44848656 Ry
     estimated scf accuracy    <       0.00000005 Ry

     iteration #  3     ecut=     8.00 Ry     beta=0.70
     Davidson diagonalization with overlap
     ethr =  5.91E-10,  avg # of iterations =  1.0

     total cpu time spent up to now is        1.1 secs

     End of self-consistent calculation

          k = 0.0000 0.0000 0.0000 (   113 PWs)   bands (ev):

    -4.7628   7.3020   7.3020   7.5827

     highest occupied level (ev):     7.5827

!    total energy              =     -14.44848658 Ry
     Harris-Foulkes estimate   =     -14.44848658 Ry
     estimated scf accuracy    <          1.3E-09 Ry

     convergence has been achieved in   3 iterations

     Forces acting on atoms (Ry/au):

     atom    1 type  1   force =     0.01760361    0.01760367    0.01760365
     atom    2 type  1   force =    -0.01760361   -0.01760367   -0.01760365

     Total force =     0.043120     Total SCF correction =     0.000010

     Entering Dynamics:    iteration =    30
                           time      =   0.0290 pico-seconds


ATOMIC_POSITIONS (alat)
Si      -0.126409361  -0.126409368  -0.126409367
Si       0.126409361   0.126409368   0.126409367


     kinetic energy (Ekin) =     0.00054538 Ry
     temperature           =    57.40575564 K 
     Ekin + Etot (const)   =   -14.44794120 Ry

     Linear momentum :    0.0000000000    0.0000000000    0.0000000000

     Writing output data file pwscf.save

     second order wave-functions extrapolation
     NEW-OLD atomic charge density approx. for the potential

     total cpu time spent up to now is        1.1 secs

     per-process dynamical memory:     2.6 Mb

     Self-consistent Calculation

     iteration #  1     ecut=     8.00 Ry     beta=0.70
     Davidson diagonalization with overlap
     ethr =  1.00E-06,  avg # of iterations =  2.0

     Threshold (ethr) on eigenvalues was too large:
[...]

     iteration #  2     ecut=     8.00 Ry     beta=0.70
     Davidson diagonalization with overlap
     ethr =  5.55E-09,  avg # of iterations =  2.0

     total cpu time spent up to now is        3.2 secs

     total energy              =     -14.44819158 Ry
     Harris-Foulkes estimate   =     -14.44819157 Ry
     estimated scf accuracy    <       0.00000003 Ry

     iteration #  3     ecut=     8.00 Ry     beta=0.70
     Davidson diagonalization with overlap
     ethr =  4.33E-10,  avg # of iterations =  1.0

     total cpu time spent up to now is        3.2 secs

     End of self-consistent calculation

          k = 0.0000 0.0000 0.0000 (   113 PWs)   bands (ev):

    -4.7634   7.1828   7.5022   7.5022

     highest occupied level (ev):     7.5022

!    total energy              =     -14.44819158 Ry
     Harris-Foulkes estimate   =     -14.44819158 Ry
     estimated scf accuracy    <          6.9E-10 Ry

     convergence has been achieved in   3 iterations

     Forces acting on atoms (Ry/au):

     atom    1 type  1   force =    -0.02105753   -0.02105746   -0.02105744
     atom    2 type  1   force =     0.02105753    0.02105746    0.02105744

     Total force =     0.051580     Total SCF correction =     0.000008

     Entering Dynamics:    iteration =    93
                           time      =   0.0900 pico-seconds


ATOMIC_POSITIONS (alat)
Si      -0.123092278  -0.123092283  -0.123092285
Si       0.123092278   0.123092283   0.123092285


     kinetic energy (Ekin) =     0.00024776 Ry
     temperature           =    26.07894192 K 
     Ekin + Etot (const)   =   -14.44794382 Ry

     Linear momentum :    0.0000000000    0.0000000000    0.0000000000

     Writing output data file pwscf.save

     second order wave-functions extrapolation
     NEW-OLD atomic charge density approx. for the potential

     total cpu time spent up to now is        3.2 secs

     per-process dynamical memory:     2.6 Mb

     Self-consistent Calculation

     iteration #  1     ecut=     8.00 Ry     beta=0.70
     Davidson diagonalization with overlap
     ethr =  1.00E-06,  avg # of iterations =  1.0

     Threshold (ethr) on eigenvalues was too large:
     Diagonalizing with lowered threshold

     Davidson diagonalization with overlap
     ethr =  3.03E-09,  avg # of iterations =  1.0

     total cpu time spent up to now is        3.2 secs

     total energy              =     -14.44806552 Ry
     Harris-Foulkes estimate   =     -14.44806551 Ry
     estimated scf accuracy    <       0.00000025 Ry

     iteration #  2     ecut=     8.00 Ry     beta=0.70
     Davidson diagonalization with overlap
     ethr =  3.09E-09,  avg # of iterations =  2.0

     total cpu time spent up to now is        3.2 secs

     total energy              =     -14.44806554 Ry
     Harris-Foulkes estimate   =     -14.44806553 Ry
     estimated scf accuracy    <       0.00000002 Ry

     iteration #  3     ecut=     8.00 Ry     beta=0.70
     Davidson diagonalization with overlap
     ethr =  2.42E-10,  avg # of iterations =  1.0

     total cpu time spent up to now is        3.2 secs

     End of self-consistent calculation

          k = 0.0000 0.0000 0.0000 (   113 PWs)   bands (ev):

    -4.7637   7.1717   7.5079   7.5079

     highest occupied level (ev):     7.5079

!    total energy              =     -14.44806554 Ry
     Harris-Foulkes estimate   =     -14.44806554 Ry
     estimated scf accuracy    <          3.8E-10 Ry

     convergence has been achieved in   3 iterations

     Forces acting on atoms (Ry/au):

     atom    1 type  1   force =    -0.02219589   -0.02219584   -0.02219582
     atom    2 type  1   force =     0.02219589    0.02219584    0.02219582

     Total force =     0.054369     Total SCF correction =     0.000006

     Entering Dynamics:    iteration =    94
                           time      =   0.0910 pico-seconds


ATOMIC_POSITIONS (alat)
Si      -0.123030919  -0.123030922  -0.123030924
Si       0.123030919   0.123030922   0.123030924


     kinetic energy (Ekin) =     0.00012228 Ry
     temperature           =    12.87097010 K 
     Ekin + Etot (const)   =   -14.44794326 Ry

     Linear momentum :    0.0000000000    0.0000000000    0.0000000000

     Writing output data file pwscf.save

     second order wave-functions extrapolation
     NEW-OLD atomic charge density approx. for the potential

     total cpu time spent up to now is        3.2 secs

     per-process dynamical memory:     2.6 Mb

     Self-consistent Calculation

     iteration #  1     ecut=     8.00 Ry     beta=0.70
     Davidson diagonalization with overlap
     ethr =  1.00E-06,  avg # of iterations =  1.0

     Threshold (ethr) on eigenvalues was too large:
     Diagonalizing with lowered threshold

     Davidson diagonalization with overlap
     ethr =  1.25E-09,  avg # of iterations =  1.0

     total cpu time spent up to now is        3.3 secs

     total energy              =     -14.44798098 Ry
     Harris-Foulkes estimate   =     -14.44798097 Ry
     estimated scf accuracy    <       0.00000010 Ry

     iteration #  2     ecut=     8.00 Ry     beta=0.70
     Davidson diagonalization with overlap
     ethr =  1.28E-09,  avg # of iterations =  2.0

     total cpu time spent up to now is        3.3 secs

     End of self-consistent calculation

          k = 0.0000 0.0000 0.0000 (   113 PWs)   bands (ev):

    -4.7638   7.1646   7.5116   7.5116

     highest occupied level (ev):     7.5116

!    total energy              =     -14.44798099 Ry
     Harris-Foulkes estimate   =     -14.44798098 Ry
     estimated scf accuracy    <          8.0E-09 Ry

     convergence has been achieved in   2 iterations

     Forces acting on atoms (Ry/au):

     atom    1 type  1   force =    -0.02293328   -0.02293324   -0.02293322
     atom    2 type  1   force =     0.02293328    0.02293324    0.02293322

     Total force =     0.056175     Total SCF correction =     0.000010

     Entering Dynamics:    iteration =    95
                           time      =   0.0919 pico-seconds


ATOMIC_POSITIONS (alat)
Si      -0.123004761  -0.123004762  -0.123004764
Si       0.123004761   0.123004762   0.123004764


     kinetic energy (Ekin) =     0.00003810 Ry
     temperature           =     4.01037320 K 
     Ekin + Etot (const)   =   -14.44794289 Ry

     Linear momentum :    0.0000000000    0.0000000000    0.0000000000

     Writing output data file pwscf.save

     second order wave-functions extrapolation
     NEW-OLD atomic charge density approx. for the potential

     total cpu time spent up to now is        3.3 secs

     per-process dynamical memory:     2.6 Mb

     Self-consistent Calculation

     iteration #  1     ecut=     8.00 Ry     beta=0.70
     Davidson diagonalization with overlap
     ethr =  1.00E-06,  avg # of iterations =  1.0

     Threshold (ethr) on eigenvalues was too large:
     Diagonalizing with lowered threshold

     Davidson diagonalization with overlap
     ethr =  2.21E-10,  avg # of iterations =  1.0

     total cpu time spent up to now is        3.3 secs

     total energy              =     -14.44794410 Ry
     Harris-Foulkes estimate   =     -14.44794410 Ry
     estimated scf accuracy    <       0.00000002 Ry

     iteration #  2     ecut=     8.00 Ry     beta=0.70
     Davidson diagonalization with overlap
     ethr =  2.26E-10,  avg # of iterations =  2.0

     total cpu time spent up to now is        3.3 secs

     End of self-consistent calculation

          k = 0.0000 0.0000 0.0000 (   113 PWs)   bands (ev):

    -4.7639   7.1616   7.5131   7.5131

     highest occupied level (ev):     7.5131

!    total energy              =     -14.44794410 Ry
     Harris-Foulkes estimate   =     -14.44794410 Ry
     estimated scf accuracy    <          1.5E-09 Ry

     convergence has been achieved in   2 iterations

     Forces acting on atoms (Ry/au):

     atom    1 type  1   force =    -0.02324356   -0.02324354   -0.02324352
     atom    2 type  1   force =     0.02324356    0.02324354    0.02324352

     Total force =     0.056935     Total SCF correction =     0.000005

     Entering Dynamics:    iteration =    96
                           time      =   0.0929 pico-seconds


ATOMIC_POSITIONS (alat)
Si      -0.123014280  -0.123014280  -0.123014282
Si       0.123014280   0.123014280   0.123014282


     kinetic energy (Ekin) =     0.00000138 Ry
     temperature           =     0.14498802 K 
     Ekin + Etot (const)   =   -14.44794273 Ry

     Linear momentum :    0.0000000000    0.0000000000    0.0000000000

     Writing output data file pwscf.save

     second order wave-functions extrapolation
     NEW-OLD atomic charge density approx. for the potential

     total cpu time spent up to now is        3.3 secs

     per-process dynamical memory:     2.6 Mb

     Self-consistent Calculation

     iteration #  1     ecut=     8.00 Ry     beta=0.70
     Davidson diagonalization with overlap
     ethr =  1.00E-06,  avg # of iterations =  1.0

     Threshold (ethr) on eigenvalues was too large:
     Diagonalizing with lowered threshold

     Davidson diagonalization with overlap
     ethr =  3.13E-11,  avg # of iterations =  2.0

     total cpu time spent up to now is        3.3 secs

     End of self-consistent calculation

          k = 0.0000 0.0000 0.0000 (   113 PWs)   bands (ev):

    -4.7639   7.1626   7.5126   7.5126

     highest occupied level (ev):     7.5126

!    total energy              =     -14.44795758 Ry
     Harris-Foulkes estimate   =     -14.44795758 Ry
     estimated scf accuracy    <          2.6E-09 Ry

     convergence has been achieved in   1 iterations

     Forces acting on atoms (Ry/au):

     atom    1 type  1   force =    -0.02312588   -0.02312588   -0.02312586
     atom    2 type  1   force =     0.02312588    0.02312588    0.02312586

     Total force =     0.056647     Total SCF correction =     0.000018

     Entering Dynamics:    iteration =    97
                           time      =   0.0939 pico-seconds


ATOMIC_POSITIONS (alat)
Si      -0.123059296  -0.123059295  -0.123059296
Si       0.123059296   0.123059295   0.123059296


     kinetic energy (Ekin) =     0.00001479 Ry
     temperature           =     1.55703307 K 
     Ekin + Etot (const)   =   -14.44794279 Ry

     Linear momentum :    0.0000000000    0.0000000000    0.0000000000

     Writing output data file pwscf.save

     second order wave-functions extrapolation
     NEW-OLD atomic charge density approx. for the potential

     total cpu time spent up to now is        3.3 secs

     per-process dynamical memory:     2.6 Mb

     Self-consistent Calculation

     iteration #  1     ecut=     8.00 Ry     beta=0.70
     Davidson diagonalization with overlap
     ethr =  1.00E-06,  avg # of iterations =  1.0

     Threshold (ethr) on eigenvalues was too large:
     Diagonalizing with lowered threshold

     Davidson diagonalization with overlap
     ethr =  6.97E-10,  avg # of iterations =  1.0

     total cpu time spent up to now is        3.3 secs

     total energy              =     -14.44802042 Ry
     Harris-Foulkes estimate   =     -14.44802042 Ry
     estimated scf accuracy    <       0.00000005 Ry

     iteration #  2     ecut=     8.00 Ry     beta=0.70
     Davidson diagonalization with overlap
     ethr =  6.72E-10,  avg # of iterations =  2.0

     total cpu time spent up to now is        3.3 secs

     End of self-consistent calculation

          k = 0.0000 0.0000 0.0000 (   113 PWs)   bands (ev):

    -4.7638   7.1680   7.5098   7.5098

     highest occupied level (ev):     7.5098

!    total energy              =     -14.44802043 Ry
     Harris-Foulkes estimate   =     -14.44802043 Ry
     estimated scf accuracy    <          4.8E-09 Ry

     convergence has been achieved in   2 iterations

     Forces acting on atoms (Ry/au):

     atom    1 type  1   force =    -0.02258277   -0.02258279   -0.02258277
     atom    2 type  1   force =     0.02258277    0.02258279    0.02258277

     Total force =     0.055316     Total SCF correction =     0.000015

     Entering Dynamics:    iteration =    98
                           time      =   0.0948 pico-seconds


ATOMIC_POSITIONS (alat)
Si      -0.123138976  -0.123138972  -0.123138974
Si       0.123138976   0.123138972   0.123138974


     kinetic energy (Ekin) =     0.00007734 Ry
     temperature           =     8.14068312 K 
     Ekin + Etot (const)   =   -14.44794309 Ry

     Linear momentum :    0.0000000000    0.0000000000    0.0000000000

     Writing output data file pwscf.save

     second order wave-functions extrapolation
     NEW-OLD atomic charge density approx. for the potential

     total cpu time spent up to now is        3.4 secs

     per-process dynamical memory:     2.6 Mb

     Self-consistent Calculation

     iteration #  1     ecut=     8.00 Ry     beta=0.70
     Davidson diagonalization with overlap
     ethr =  1.00E-06,  avg # of iterations =  1.0

     Threshold (ethr) on eigenvalues was too large:
     Diagonalizing with lowered threshold

     Davidson diagonalization with overlap
     ethr =  2.11E-09,  avg # of iterations =  2.0

     total cpu time spent up to now is        3.4 secs

     total energy              =     -14.44812802 Ry
     Harris-Foulkes estimate   =     -14.44812802 Ry
     estimated scf accuracy    <       0.00000018 Ry

     iteration #  2     ecut=     8.00 Ry     beta=0.70
     Davidson diagonalization with overlap
     ethr =  2.20E-09,  avg # of iterations =  2.0

     total cpu time spent up to now is        3.4 secs

     total energy              =     -14.44812804 Ry
     Harris-Foulkes estimate   =     -14.44812803 Ry
     estimated scf accuracy    <       0.00000001 Ry

     iteration #  3     ecut=     8.00 Ry     beta=0.70
     Davidson diagonalization with overlap
     ethr =  1.77E-10,  avg # of iterations =  1.0

     total cpu time spent up to now is        3.4 secs

     End of self-consistent calculation

          k = 0.0000 0.0000 0.0000 (   113 PWs)   bands (ev):

    -4.7636   7.1772   7.5051   7.5051

     highest occupied level (ev):     7.5051

!    total energy              =     -14.44812804 Ry
     Harris-Foulkes estimate   =     -14.44812804 Ry
     estimated scf accuracy    <          3.7E-10 Ry

     convergence has been achieved in   3 iterations

     Forces acting on atoms (Ry/au):

     atom    1 type  1   force =    -0.02163379   -0.02163382   -0.02163380
     atom    2 type  1   force =     0.02163379    0.02163382    0.02163380

     Total force =     0.052992     Total SCF correction =     0.000004

     Entering Dynamics:    iteration =    99
                           time      =   0.0958 pico-seconds


ATOMIC_POSITIONS (alat)
Si      -0.123251862  -0.123251857  -0.123251859
Si       0.123251862   0.123251857   0.123251859


     kinetic energy (Ekin) =     0.00018444 Ry
     temperature           =    19.41425292 K 
     Ekin + Etot (const)   =   -14.44794360 Ry

     Linear momentum :    0.0000000000    0.0000000000    0.0000000000

     Writing output data file pwscf.save

     second order wave-functions extrapolation
     NEW-OLD atomic charge density approx. for the potential

     total cpu time spent up to now is        3.4 secs

     per-process dynamical memory:     2.6 Mb

     Self-consistent Calculation

     iteration #  1     ecut=     8.00 Ry     beta=0.70
     Davidson diagonalization with overlap
     ethr =  1.00E-06,  avg # of iterations =  1.0

     Threshold (ethr) on eigenvalues was too large:
     Diagonalizing with lowered threshold

     Davidson diagonalization with overlap
     ethr =  4.25E-09,  avg # of iterations =  1.0

     total cpu time spent up to now is        3.4 secs

     total energy              =     -14.44827255 Ry
     Harris-Foulkes estimate   =     -14.44827253 Ry
     estimated scf accuracy    <       0.00000035 Ry

     iteration #  2     ecut=     8.00 Ry     beta=0.70
     Davidson diagonalization with overlap
     ethr =  4.34E-09,  avg # of iterations =  2.0

     total cpu time spent up to now is        3.4 secs

     total energy              =     -14.44827258 Ry
     Harris-Foulkes estimate   =     -14.44827256 Ry
     estimated scf accuracy    <       0.00000003 Ry

     iteration #  3     ecut=     8.00 Ry     beta=0.70
     Davidson diagonalization with overlap
     ethr =  3.38E-10,  avg # of iterations =  1.0

     total cpu time spent up to now is        3.4 secs

     End of self-consistent calculation

          k = 0.0000 0.0000 0.0000 (   113 PWs)   bands (ev):

    -4.7633   7.1903   7.4983   7.4983

     highest occupied level (ev):     7.4983

!    total energy              =     -14.44827258 Ry
     Harris-Foulkes estimate   =     -14.44827258 Ry
     estimated scf accuracy    <          5.4E-10 Ry

     convergence has been achieved in   3 iterations

     Forces acting on atoms (Ry/au):

     atom    1 type  1   force =    -0.02028733   -0.02028738   -0.02028737
     atom    2 type  1   force =     0.02028733    0.02028738    0.02028737

     Total force =     0.049694     Total SCF correction =     0.000007

     Entering Dynamics:    iteration =   100
                           time      =   0.0968 pico-seconds


ATOMIC_POSITIONS (alat)
Si      -0.123395888  -0.123395882  -0.123395883
Si       0.123395888   0.123395882   0.123395883


     kinetic energy (Ekin) =     0.00032831 Ry
     temperature           =    34.55692612 K 
     Ekin + Etot (const)   =   -14.44794427 Ry

     Linear momentum :    0.0000000000    0.0000000000    0.0000000000

     The maximum number of steps has been reached.

     End of molecular dynamics calculation

     diffusion coefficients :
     atom     1   D =       0.00000000 cm^2/s
     atom     2   D =       0.00000000 cm^2/s

     < D > =       0.00000000 cm^2/s

     Writing output data file pwscf.save
 
     init_run     :      0.01s CPU      0.01s WALL (       1 calls)
     electrons    :      0.61s CPU      0.65s WALL (     100 calls)
     update_pot   :      0.21s CPU      0.23s WALL (      99 calls)
     forces       :      0.04s CPU      0.05s WALL (     100 calls)

     Called by init_run:
     wfcinit      :      0.00s CPU      0.00s WALL (       1 calls)
     potinit      :      0.00s CPU      0.00s WALL (       1 calls)

     Called by electrons:
     c_bands      :      0.29s CPU      0.32s WALL (     382 calls)
     sum_band     :      0.07s CPU      0.08s WALL (     382 calls)
     v_of_rho     :      0.07s CPU      0.08s WALL (     383 calls)
     mix_rho      :      0.03s CPU      0.03s WALL (     382 calls)

     Called by c_bands:
     init_us_2    :      0.01s CPU      0.01s WALL (     765 calls)
     cegterg      :      0.27s CPU      0.30s WALL (     382 calls)

     Called by sum_band:

     Called by *egterg:
     h_psi        :      0.18s CPU      0.21s WALL (     936 calls)
     g_psi        :      0.00s CPU      0.00s WALL (     553 calls)
     cdiaghg      :      0.05s CPU      0.05s WALL (     737 calls)

     Called by h_psi:
     h_psi:pot    :      0.18s CPU      0.21s WALL (     936 calls)
     h_psi:calbec :      0.01s CPU      0.02s WALL (     936 calls)
     add_vuspsi   :      0.01s CPU      0.01s WALL (     936 calls)

     General routines
     calbec       :      0.02s CPU      0.02s WALL (    1434 calls)
     fft          :      0.05s CPU      0.07s WALL (    1929 calls)
     fftw         :      0.18s CPU      0.20s WALL (    8126 calls)
     davcio       :      0.01s CPU      0.01s WALL (    1237 calls)
 
     Parallel routines
     fft_scatter  :      0.06s CPU      0.07s WALL (   10055 calls)
 
     PWSCF        :     3.07s CPU         3.46s WALL

 
   This run was terminated on:  16:10:27  18Aug2016            

=------------------------------------------------------------------------------=
   JOB DONE.
=------------------------------------------------------------------------------=
