
     Program PWSCF v.5.4.0 (svn rev. 12782M) starts on 18Aug2016 at 16:10:34 

     This program is part of the open-source Quantum ESPRESSO suite
     for quantum simulation of materials; please cite
         "P. Giannozzi et al., J. Phys.:Condens. Matter 21 395502 (2009);
          URL http://www.quantum-espresso.org", 
     in publications or presentations arising from this work. More details at
     http://www.quantum-espresso.org/quote
 
           HOST :    x86_64-pc-linux-gnu
           ARCH :    x86_64
             CC :    icc
            CPP :    cpp
            F90 :    ifort
            F77 :    ifort
         DFLAGS :    -D__INTEL -D__FFTW -D__MPI -D__PARA -D__HDF5
      BLAS LIBS :    -lmkl_intel_lp64  -lmkl_sequential -lmkl_core
    LAPACK LIBS :    
       FFT LIBS :    
      MASS LIBS :    

     Parallel version (MPI), running on     2 processors
     R & G space division:  proc/nbgrp/npool/nimage =       2
     Waiting for input...
     Reading input from standard input
     Message from routine read_cards :
     DEPRECATED: no units specified in ATOMIC_POSITIONS card
     Message from routine read_cards :
     ATOMIC_POSITIONS: units set to alat

     Current dimensions of program PWSCF are:
     Max number of different atomic species (ntypx) = 10
     Max number of k-points (npk) =  40000
     Max angular momentum in pseudopotentials (lmaxx) =  3

     Subspace diagonalization in iterative solution of the eigenvalue problem:
     a serial algorithm will be used

 
     Parallelization info
     --------------------
     sticks:   dense  smooth     PW     G-vecs:    dense   smooth      PW
     Min          60      60     18                  434      434      83
     Max          61      61     19                  435      435      86
     Sum         121     121     37                  869      869     169
 


     bravais-lattice index     =            2
     lattice parameter (alat)  =      10.1800  a.u.
     unit-cell volume          =     263.7445 (a.u.)^3
     number of atoms/cell      =            2
     number of atomic types    =            1
     number of electrons       =         8.00
     number of Kohn-Sham states=            4
     kinetic-energy cutoff     =       8.0000  Ry
     charge density cutoff     =      32.0000  Ry
     convergence threshold     =      1.0E-08
     mixing beta               =       0.7000
     number of iterations used =            8  plain     mixing
     Exchange-correlation      =  SLA  PZ   NOGX NOGC ( 1  1  0  0 0 0)
     nstep                     =          100


     celldm(1)=  10.180000  celldm(2)=   0.000000  celldm(3)=   0.000000
     celldm(4)=   0.000000  celldm(5)=   0.000000  celldm(6)=   0.000000

     crystal axes: (cart. coord. in units of alat)
               a(1) = (  -0.500000   0.000000   0.500000 )  
               a(2) = (   0.000000   0.500000   0.500000 )  
               a(3) = (  -0.500000   0.500000   0.000000 )  

     reciprocal axes: (cart. coord. in units 2 pi/alat)
               b(1) = ( -1.000000 -1.000000  1.000000 )  
               b(2) = (  1.000000  1.000000  1.000000 )  
               b(3) = ( -1.000000  1.000000 -1.000000 )  


     PseudoPot. # 1 for Si read from file:
     /home/nvarini/espresso_hdf5/espresso/pseudo/Si.pz-vbc.UPF
     MD5 check sum: 6dfa03ddd5817404712e03e4d12deb78
     Pseudo is Norm-conserving, Zval =  4.0
     Generated by new atomic code, or converted to UPF format
     Using radial grid of  431 points,  2 beta functions with: 
                l(1) =   0
                l(2) =   1

     atomic species   valence    mass     pseudopotential
        Si             4.00    28.08600     Si( 1.00)

     No symmetry found



   Cartesian axes

     site n.     atom                  positions (alat units)
         1           Si  tau(   1) = (  -0.1230000  -0.1230000  -0.1230000  )
         2           Si  tau(   2) = (   0.1230000   0.1230000   0.1230000  )

     number of k points=     4
                       cart. coord. in units 2pi/alat
        k(    1) = (   0.0000000   0.0000000   0.0000000), wk =   0.5000000
        k(    2) = (   1.0000000   0.0000000   0.0000000), wk =   0.5000000
        k(    3) = (   0.0000000   1.0000000   0.0000000), wk =   0.5000000
        k(    4) = (   0.0000000   0.0000000   1.0000000), wk =   0.5000000

     Dense  grid:      869 G-vectors     FFT dimensions: (  15,  15,  15)

     Estimated max dynamical RAM per process >       0.22Mb

     Estimated total allocated dynamical RAM >       0.44Mb

     Initial potential from superposition of free atoms

     starting charge    7.99901, renormalised to    8.00000
     Starting wfc are    8 randomized atomic wfcs

     total cpu time spent up to now is        0.0 secs

     per-process dynamical memory:     1.4 Mb

     Self-consistent Calculation

     iteration #  1     ecut=     8.00 Ry     beta=0.70
     Davidson diagonalization with overlap
     ethr =  1.00E-02,  avg # of iterations =  2.0

     total cpu time spent up to now is        0.0 secs

     total energy              =     -15.53704193 Ry
     Harris-Foulkes estimate   =     -15.57356106 Ry
     estimated scf accuracy    <       0.10784279 Ry

     iteration #  2     ecut=     8.00 Ry     beta=0.70
     Davidson diagonalization with overlap
     ethr =  1.35E-03,  avg # of iterations =  1.0

     total cpu time spent up to now is        0.0 secs

     total energy              =     -15.54353021 Ry
     Harris-Foulkes estimate   =     -15.54398738 Ry
     estimated scf accuracy    <       0.00417441 Ry

     iteration #  3     ecut=     8.00 Ry     beta=0.70
     Davidson diagonalization with overlap
     ethr =  5.22E-05,  avg # of iterations =  1.8

     total cpu time spent up to now is        0.0 secs

     total energy              =     -15.54393922 Ry
     Harris-Foulkes estimate   =     -15.54395075 Ry
     estimated scf accuracy    <       0.00009769 Ry

     iteration #  4     ecut=     8.00 Ry     beta=0.70
     Davidson diagonalization with overlap
     ethr =  1.22E-06,  avg # of iterations =  2.0

     total cpu time spent up to now is        0.1 secs

     total energy              =     -15.54395039 Ry
     Harris-Foulkes estimate   =     -15.54395125 Ry
     estimated scf accuracy    <       0.00000206 Ry

     iteration #  5     ecut=     8.00 Ry     beta=0.70
     Davidson diagonalization with overlap
     ethr =  2.57E-08,  avg # of iterations =  2.8

     total cpu time spent up to now is        0.1 secs

     total energy              =     -15.54395124 Ry
     Harris-Foulkes estimate   =     -15.54395128 Ry
     estimated scf accuracy    <       0.00000010 Ry

     iteration #  6     ecut=     8.00 Ry     beta=0.70
     Davidson diagonalization with overlap
     ethr =  1.27E-09,  avg # of iterations =  2.5

     total cpu time spent up to now is        0.1 secs

     End of self-consistent calculation

          k = 0.0000 0.0000 0.0000 (   113 PWs)   bands (ev):

    -5.2234   6.4884   6.8185   6.8186

          k = 1.0000 0.0000 0.0000 (   108 PWs)   bands (ev):

    -1.0940  -0.9567   3.5685   3.6375

          k = 0.0000 1.0000 0.0000 (   108 PWs)   bands (ev):

    -1.0941  -0.9566   3.5684   3.6376

          k = 0.0000 0.0000 1.0000 (   108 PWs)   bands (ev):

    -1.0940  -0.9567   3.5685   3.6375

     highest occupied level (ev):     6.8186

!    total energy              =     -15.54395126 Ry
     Harris-Foulkes estimate   =     -15.54395126 Ry
     estimated scf accuracy    <          6.3E-09 Ry

     convergence has been achieved in   6 iterations

     Forces acting on atoms (Ry/au):

     atom    1 type  1   force =    -0.01508995   -0.01508896   -0.01509019
     atom    2 type  1   force =     0.01508995    0.01508896    0.01509019

     Total force =     0.036962     Total SCF correction =     0.000037

     Molecular Dynamics Calculation
     mass Si               =    28.09
     Time step             =    20.00 a.u.,  0.9676 femto-seconds

     Entering Dynamics:    iteration =     1
                           time      =   0.0010 pico-seconds


ATOMIC_POSITIONS (alat)
Si      -0.123011581  -0.123011580  -0.123011581
Si       0.123011581   0.123011580   0.123011581


     kinetic energy (Ekin) =     0.00000000 Ry
     temperature           =     0.00000000 K 
     Ekin + Etot (const)   =   -15.54395126 Ry

     Linear momentum :    0.0000000000    0.0000000000    0.0000000000

     Writing output data file pwscf.save
     NEW-OLD atomic charge density approx. for the potential

     total cpu time spent up to now is        0.1 secs

     per-process dynamical memory:     2.1 Mb

     Self-consistent Calculation

     iteration #  1     ecut=     8.00 Ry     beta=0.70
     Davidson diagonalization with overlap
     ethr =  1.00E-06,  avg # of iterations =  1.2

     Threshold (ethr) on eigenvalues was too large:
     Diagonalizing with lowered threshold

     Davidson diagonalization with overlap
     ethr =  4.43E-11,  avg # of iterations =  3.5

     total cpu time spent up to now is        0.1 secs

     End of self-consistent calculation

          k = 0.0000 0.0000 0.0000 (   113 PWs)   bands (ev):

    -5.2233   6.4896   6.8180   6.8181

          k = 1.0000 0.0000 0.0000 (   108 PWs)   bands (ev):

    -1.0936  -0.9569   3.5687   3.6374

          k = 0.0000 1.0000 0.0000 (   108 PWs)   bands (ev):

    -1.0936  -0.9570   3.5687   3.6374

          k = 0.0000 0.0000 1.0000 (   108 PWs)   bands (ev):

    -1.0936  -0.9569   3.5686   3.6375

     highest occupied level (ev):     6.8181

!    total energy              =     -15.54396190 Ry
     Harris-Foulkes estimate   =     -15.54396190 Ry
     estimated scf accuracy    <          2.9E-09 Ry

     convergence has been achieved in   1 iterations

     Forces acting on atoms (Ry/au):

     atom    1 type  1   force =    -0.01499589   -0.01499549   -0.01499568
     atom    2 type  1   force =     0.01499589    0.01499549    0.01499568

     Total force =     0.036732     Total SCF correction =     0.000018

     Entering Dynamics:    iteration =     2
                           time      =   0.0019 pico-seconds


ATOMIC_POSITIONS (alat)
Si      -0.123046180  -0.123046178  -0.123046180
Si       0.123046180   0.123046178   0.123046180


     kinetic energy (Ekin) =     0.00001061 Ry
     temperature           =     1.11652501 K 
     Ekin + Etot (const)   =   -15.54395129 Ry

     Linear momentum :    0.0000000000    0.0000000000    0.0000000000

     Writing output data file pwscf.save

     first order wave-functions extrapolation
     NEW-OLD atomic charge density approx. for the potential

     total cpu time spent up to now is        0.2 secs

     per-process dynamical memory:     2.6 Mb

     Self-consistent Calculation

     iteration #  1     ecut=     8.00 Ry     beta=0.70
     Davidson diagonalization with overlap
     ethr =  1.00E-06,  avg # of iterations =  1.2

     Threshold (ethr) on eigenvalues was too large:
     Diagonalizing with lowered threshold

     Davidson diagonalization with overlap
     ethr =  1.34E-10,  avg # of iterations =  3.8

     total cpu time spent up to now is        0.2 secs

     total energy              =     -15.54399330 Ry
     Harris-Foulkes estimate   =     -15.54399330 Ry
     estimated scf accuracy    <       0.00000001 Ry

     iteration #  2     ecut=     8.00 Ry     beta=0.70
     Davidson diagonalization with overlap
     ethr =  1.64E-10,  avg # of iterations =  1.0

     total cpu time spent up to now is        0.2 secs

     End of self-consistent calculation

          k = 0.0000 0.0000 0.0000 (   113 PWs)   bands (ev):

    -5.2233   6.4934   6.8161   6.8161

          k = 1.0000 0.0000 0.0000 (   108 PWs)   bands (ev):

    -1.0923  -0.9581   3.5692   3.6368

          k = 0.0000 1.0000 0.0000 (   108 PWs)   bands (ev):

    -1.0923  -0.9581   3.5692   3.6368

          k = 0.0000 0.0000 1.0000 (   108 PWs)   bands (ev):

    -1.0923  -0.9581   3.5692   3.6368

     highest occupied level (ev):     6.8161

!    total energy              =     -15.54399330 Ry
     Harris-Foulkes estimate   =     -15.54399330 Ry
     estimated scf accuracy    <          8.9E-10 Ry

     convergence has been achieved in   2 iterations

     Forces acting on atoms (Ry/au):

     atom    1 type  1   force =    -0.01472380   -0.01472362   -0.01472393
     atom    2 type  1   force =     0.01472380    0.01472362    0.01472393

     Total force =     0.036066     Total SCF correction =     0.000004

     Entering Dynamics:    iteration =     3
                           time      =   0.0029 pico-seconds


ATOMIC_POSITIONS (alat)
Si      -0.123103379  -0.123103375  -0.123103379
Si       0.123103379   0.123103375   0.123103379


     kinetic energy (Ekin) =     0.00004192 Ry
     temperature           =     4.41194603 K 
     Ekin + Etot (const)   =   -15.54395139 Ry

     Linear momentum :    0.0000000000    0.0000000000    0.0000000000

     Writing output data file pwscf.save

     second order wave-functions extrapolation
     NEW-OLD atomic charge density approx. for the potential

     total cpu time spent up to now is        0.2 secs

     per-process dynamical memory:     2.6 Mb

     Self-consistent Calculation

     iteration #  1     ecut=     8.00 Ry     beta=0.70
     Davidson diagonalization with overlap
     ethr =  1.00E-06,  avg # of iterations =  1.0

     Threshold (ethr) on eigenvalues was too large:
     Diagonalizing with lowered threshold

     Davidson diagonalization with overlap
     ethr =  4.15E-10,  avg # of iterations =  1.0

     total cpu time spent up to now is        0.2 secs

     total energy              =     -15.54404396 Ry
     Harris-Foulkes estimate   =     -15.54404395 Ry
     estimated scf accuracy    <       0.00000003 Ry

     iteration #  2     ecut=     8.00 Ry     beta=0.70
     Davidson diagonalization with overlap
     ethr =  4.19E-10,  avg # of iterations =  1.0

     total cpu time spent up to now is        0.2 secs

     End of self-consistent calculation

          k = 0.0000 0.0000 0.0000 (   113 PWs)   bands (ev):

    -5.2232   6.4996   6.8128   6.8128

          k = 1.0000 0.0000 0.0000 (   108 PWs)   bands (ev):

    -1.0901  -0.9600   3.5701   3.6358

          k = 0.0000 1.0000 0.0000 (   108 PWs)   bands (ev):

    -1.0901  -0.9600   3.5701   3.6358

          k = 0.0000 0.0000 1.0000 (   108 PWs)   bands (ev):

    -1.0901  -0.9600   3.5701   3.6358

     highest occupied level (ev):     6.8128

!    total energy              =     -15.54404396 Ry
     Harris-Foulkes estimate   =     -15.54404396 Ry
     estimated scf accuracy    <          2.5E-09 Ry

     convergence has been achieved in   2 iterations

     Forces acting on atoms (Ry/au):

     atom    1 type  1   force =    -0.01427482   -0.01427487   -0.01427518
     atom    2 type  1   force =     0.01427482    0.01427487    0.01427518

     Total force =     0.034966     Total SCF correction =     0.000006

     Entering Dynamics:    iteration =     4
                           time      =   0.0039 pico-seconds


ATOMIC_POSITIONS (alat)
Si      -0.123182489  -0.123182484  -0.123182490
Si       0.123182489   0.123182484   0.123182490


     kinetic energy (Ekin) =     0.00009242 Ry
     temperature           =     9.72788372 K 
     Ekin + Etot (const)   =   -15.54395154 Ry

     Linear momentum :    0.0000000000    0.0000000000    0.0000000000

     Writing output data file pwscf.save

     second order wave-functions extrapolation
     NEW-OLD atomic charge density approx. for the potential

     total cpu time spent up to now is        0.3 secs

     per-process dynamical memory:     2.6 Mb

     Self-consistent Calculation

     iteration #  1     ecut=     8.00 Ry     beta=0.70
     Davidson diagonalization with overlap
     ethr =  1.00E-06,  avg # of iterations =  1.0

     Threshold (ethr) on eigenvalues was too large:
     Diagonalizing with lowered threshold

     Davidson diagonalization with overlap
     ethr =  7.72E-10,  avg # of iterations =  1.0

     total cpu time spent up to now is        0.3 secs

     total energy              =     -15.54411144 Ry
     Harris-Foulkes estimate   =     -15.54411143 Ry
     estimated scf accuracy    <       0.00000006 Ry

     iteration #  2     ecut=     8.00 Ry     beta=0.70
     Davidson diagonalization with overlap
     ethr =  7.89E-10,  avg # of iterations =  1.0

     total cpu time spent up to now is        0.3 secs

     End of self-consistent calculation

          k = 0.0000 0.0000 0.0000 (   113 PWs)   bands (ev):

    -5.2230   6.5082   6.8084   6.8084

          k = 1.0000 0.0000 0.0000 (   108 PWs)   bands (ev):

    -1.0871  -0.9627   3.5713   3.6345

          k = 0.0000 1.0000 0.0000 (   108 PWs)   bands (ev):

    -1.0871  -0.9627   3.5713   3.6345

          k = 0.0000 0.0000 1.0000 (   108 PWs)   bands (ev):

    -1.0871  -0.9627   3.5713   3.6345

     highest occupied level (ev):     6.8084

!    total energy              =     -15.54411145 Ry
     Harris-Foulkes estimate   =     -15.54411144 Ry
     estimated scf accuracy    <          4.8E-09 Ry

     convergence has been achieved in   2 iterations

     Forces acting on atoms (Ry/au):

     atom    1 type  1   force =    -0.01365577   -0.01365562   -0.01365593
     atom    2 type  1   force =     0.01365577    0.01365562    0.01365593

     Total force =     0.033450     Total SCF correction =     0.000009

     Entering Dynamics:    iteration =     5
                           time      =   0.0048 pico-seconds


ATOMIC_POSITIONS (alat)
Si      -0.123282560  -0.123282553  -0.123282562
Si       0.123282560   0.123282553   0.123282562


     kinetic energy (Ekin) =     0.00015970 Ry
     temperature           =    16.80948524 K 
     Ekin + Etot (const)   =   -15.54395175 Ry

     Linear momentum :    0.0000000000    0.0000000000    0.0000000000

     Writing output data file pwscf.save

     second order wave-functions extrapolation
     NEW-OLD atomic charge density approx. for the potential

     total cpu time spent up to now is        0.3 secs

     per-process dynamical memory:     2.6 Mb

     Self-consistent Calculation

     iteration #  1     ecut=     8.00 Ry     beta=0.70
     Davidson diagonalization with overlap
     ethr =  1.00E-06,  avg # of iterations =  1.0

     Threshold (ethr) on eigenvalues was too large:
     Diagonalizing with lowered threshold

     Davidson diagonalization with overlap
     ethr =  1.23E-09,  avg # of iterations =  1.0

     total cpu time spent up to now is        0.3 secs

     total energy              =     -15.54419253 Ry
     Harris-Foulkes estimate   =     -15.54419251 Ry
     estimated scf accuracy    <       0.00000010 Ry

     iteration #  2     ecut=     8.00 Ry     beta=0.70
     Davidson diagonalization with overlap
     ethr =  1.25E-09,  avg # of iterations =  1.0

     total cpu time spent up to now is        0.3 secs

     End of self-consistent calculation

          k = 0.0000 0.0000 0.0000 (   113 PWs)   bands (ev):

    -5.2228   6.5191   6.8028   6.8028

          k = 1.0000 0.0000 0.0000 (   108 PWs)   bands (ev):

    -1.0833  -0.9660   3.5728   3.6327

          k = 0.0000 1.0000 0.0000 (   108 PWs)   bands (ev):

    -1.0833  -0.9660   3.5728   3.6327

          k = 0.0000 0.0000 1.0000 (   108 PWs)   bands (ev):

    -1.0833  -0.9660   3.5728   3.6327

     highest occupied level (ev):     6.8028

!    total energy              =     -15.54419254 Ry
     Harris-Foulkes estimate   =     -15.54419253 Ry
     estimated scf accuracy    <          7.7E-09 Ry

     convergence has been achieved in   2 iterations

     Forces acting on atoms (Ry/au):

     atom    1 type  1   force =    -0.01287542   -0.01287548   -0.01287543
     atom    2 type  1   force =     0.01287542    0.01287548    0.01287543

     Total force =     0.031538     Total SCF correction =     0.000012

     Entering Dynamics:    iteration =     6
                           time      =   0.0058 pico-seconds


ATOMIC_POSITIONS (alat)
Si      -0.123402394  -0.123402385  -0.123402397
Si       0.123402394   0.123402385   0.123402397


     kinetic energy (Ekin) =     0.00024054 Ry
     temperature           =    25.31866189 K 
     Ekin + Etot (const)   =   -15.54395200 Ry

     Linear momentum :    0.0000000000    0.0000000000    0.0000000000

     Writing output data file pwscf.save

     second order wave-functions extrapolation
     NEW-OLD atomic charge density approx. for the potential

     total cpu time spent up to now is        0.3 secs

     per-process dynamical memory:     2.6 Mb

     Self-consistent Calculation

     iteration #  1     ecut=     8.00 Ry     beta=0.70
     Davidson diagonalization with overlap
     ethr =  1.00E-06,  avg # of iterations =  1.8

     Threshold (ethr) on eigenvalues was too large:
     Diagonalizing with lowered threshold

     Davidson diagonalization with overlap
     ethr =  1.77E-09,  avg # of iterations =  1.0

     total cpu time spent up to now is        0.4 secs

     total energy              =     -15.54428338 Ry
     Harris-Foulkes estimate   =     -15.54428335 Ry
     estimated scf accuracy    <       0.00000014 Ry

     iteration #  2     ecut=     8.00 Ry     beta=0.70
     Davidson diagonalization with overlap
     ethr =  1.79E-09,  avg # of iterations =  1.0

     total cpu time spent up to now is        0.4 secs

     total energy              =     -15.54428338 Ry
     Harris-Foulkes estimate   =     -15.54428338 Ry
     estimated scf accuracy    <       0.00000001 Ry

     iteration #  3     ecut=     8.00 Ry     beta=0.70
     Davidson diagonalization with overlap
     ethr =  1.38E-10,  avg # of iterations =  1.0

     total cpu time spent up to now is        0.4 secs

     End of self-consistent calculation

          k = 0.0000 0.0000 0.0000 (   113 PWs)   bands (ev):

    -5.2226   6.5322   6.7961   6.7961

          k = 1.0000 0.0000 0.0000 (   108 PWs)   bands (ev):

    -1.0788  -0.9700   3.5747   3.6307

          k = 0.0000 1.0000 0.0000 (   108 PWs)   bands (ev):

    -1.0788  -0.9700   3.5747   3.6307

          k = 0.0000 0.0000 1.0000 (   108 PWs)   bands (ev):

    -1.0788  -0.9700   3.5747   3.6307

     highest occupied level (ev):     6.7961

!    total energy              =     -15.54428338 Ry
     Harris-Foulkes estimate   =     -15.54428338 Ry
     estimated scf accuracy    <          3.6E-11 Ry

     convergence has been achieved in   3 iterations

     Forces acting on atoms (Ry/au):

     atom    1 type  1   force =    -0.01194716   -0.01194727   -0.01194711
     atom    2 type  1   force =     0.01194716    0.01194727    0.01194711

     Total force =     0.029264     Total SCF correction =     0.000001

     Entering Dynamics:    iteration =     7
                           time      =   0.0068 pico-seconds


ATOMIC_POSITIONS (alat)
Si      -0.123540567  -0.123540556  -0.123540570
Si       0.123540567   0.123540556   0.123540570


     kinetic energy (Ekin) =     0.00033111 Ry
     temperature           =    34.85230680 K 
     Ekin + Etot (const)   =   -15.54395227 Ry

     Linear momentum :    0.0000000000    0.0000000000    0.0000000000

     Writing output data file pwscf.save

     second order wave-functions extrapolation
     NEW-OLD atomic charge density approx. for the potential

     total cpu time spent up to now is        0.4 secs

     per-process dynamical memory:     2.6 Mb

     Self-consistent Calculation

     iteration #  1     ecut=     8.00 Ry     beta=0.70
     Davidson diagonalization with overlap
     ethr =  1.00E-06,  avg # of iterations =  1.8

     Threshold (ethr) on eigenvalues was too large:
     Diagonalizing with lowered threshold

     Davidson diagonalization with overlap
     ethr =  2.35E-09,  avg # of iterations =  1.0

     total cpu time spent up to now is        0.4 secs

     total energy              =     -15.54437971 Ry
     Harris-Foulkes estimate   =     -15.54437967 Ry
     estimated scf accuracy    <       0.00000019 Ry

     iteration #  2     ecut=     8.00 Ry     beta=0.70
     Davidson diagonalization with overlap
     ethr =  2.41E-09,  avg # of iterations =  1.0

     total cpu time spent up to now is        0.4 secs

     total energy              =     -15.54437971 Ry
     Harris-Foulkes estimate   =     -15.54437971 Ry
     estimated scf accuracy    <       0.00000002 Ry

     iteration #  3     ecut=     8.00 Ry     beta=0.70
     Davidson diagonalization with overlap
     ethr =  1.89E-10,  avg # of iterations =  1.0

     total cpu time spent up to now is        0.4 secs

     End of self-consistent calculation

          k = 0.0000 0.0000 0.0000 (   113 PWs)   bands (ev):

    -5.2223   6.5472   6.7884   6.7884

          k = 1.0000 0.0000 0.0000 (   108 PWs)   bands (ev):

    -1.0737  -0.9746   3.5769   3.6283

          k = 0.0000 1.0000 0.0000 (   108 PWs)   bands (ev):

    -1.0737  -0.9746   3.5769   3.6283

          k = 0.0000 0.0000 1.0000 (   108 PWs)   bands (ev):

    -1.0737  -0.9746   3.5769   3.6283

     highest occupied level (ev):     6.7884

!    total energy              =     -15.54437971 Ry
     Harris-Foulkes estimate   =     -15.54437971 Ry
     estimated scf accuracy    <          4.3E-11 Ry

     convergence has been achieved in   3 iterations

     Forces acting on atoms (Ry/au):

     atom    1 type  1   force =    -0.01088123   -0.01088133   -0.01088117
     atom    2 type  1   force =     0.01088123    0.01088133    0.01088117

     Total force =     0.026653     Total SCF correction =     0.000002

     Entering Dynamics:    iteration =     8
                           time      =   0.0077 pico-seconds


ATOMIC_POSITIONS (alat)
Si      -0.123695441  -0.123695429  -0.123695445
Si       0.123695441   0.123695429   0.123695445


     kinetic energy (Ekin) =     0.00042716 Ry
     temperature           =    44.96189242 K 
     Ekin + Etot (const)   =   -15.54395255 Ry

     Linear momentum :    0.0000000000    0.0000000000    0.0000000000

     Writing output data file pwscf.save

     second order wave-functions extrapolation
     NEW-OLD atomic charge density approx. for the potential

     total cpu time spent up to now is        0.4 secs

     per-process dynamical memory:     2.6 Mb

     Self-consistent Calculation

     iteration #  1     ecut=     8.00 Ry     beta=0.70
     Davidson diagonalization with overlap
     ethr =  1.00E-06,  avg # of iterations =  1.8

     Threshold (ethr) on eigenvalues was too large:
     Diagonalizing with lowered threshold

     Davidson diagonalization with overlap
     ethr =  3.01E-09,  avg # of iterations =  1.0

     total cpu time spent up to now is        0.5 secs

     total energy              =     -15.54447702 Ry
     Harris-Foulkes estimate   =     -15.54447697 Ry
     estimated scf accuracy    <       0.00000024 Ry

     iteration #  2     ecut=     8.00 Ry     beta=0.70
     Davidson diagonalization with overlap
     ethr =  3.04E-09,  avg # of iterations =  1.0

     total cpu time spent up to now is        0.5 secs

     total energy              =     -15.54447703 Ry
     Harris-Foulkes estimate   =     -15.54447702 Ry
     estimated scf accuracy    <       0.00000002 Ry

     iteration #  3     ecut=     8.00 Ry     beta=0.70
     Davidson diagonalization with overlap
     ethr =  2.34E-10,  avg # of iterations =  1.0

     total cpu time spent up to now is        0.5 secs

     End of self-consistent calculation

          k = 0.0000 0.0000 0.0000 (   113 PWs)   bands (ev):

    -5.2221   6.5642   6.7797   6.7797

          k = 1.0000 0.0000 0.0000 (   108 PWs)   bands (ev):

    -1.0680  -0.9797   3.5794   3.6256

          k = 0.0000 1.0000 0.0000 (   108 PWs)   bands (ev):

    -1.0680  -0.9797   3.5794   3.6256

          k = 0.0000 0.0000 1.0000 (   108 PWs)   bands (ev):

    -1.0680  -0.9797   3.5794   3.6256

     highest occupied level (ev):     6.7797

!    total energy              =     -15.54447703 Ry
     Harris-Foulkes estimate   =     -15.54447703 Ry
     estimated scf accuracy    <          5.6E-11 Ry

     convergence has been achieved in   3 iterations

     Forces acting on atoms (Ry/au):

     atom    1 type  1   force =    -0.00969428   -0.00969436   -0.00969424
     atom    2 type  1   force =     0.00969428    0.00969436    0.00969424

     Total force =     0.023746     Total SCF correction =     0.000001

     Entering Dynamics:    iteration =     9
                           time      =   0.0087 pico-seconds


ATOMIC_POSITIONS (alat)
Si      -0.123865195  -0.123865182  -0.123865200
Si       0.123865195   0.123865182   0.123865200


     kinetic energy (Ekin) =     0.00052419 Ry
     temperature           =    55.17541926 K 
     Ekin + Etot (const)   =   -15.54395284 Ry

     Linear momentum :    0.0000000000    0.0000000000    0.0000000000

     Writing output data file pwscf.save

     second order wave-functions extrapolation
     NEW-OLD atomic charge density approx. for the potential

     total cpu time spent up to now is        0.5 secs

     per-process dynamical memory:     2.6 Mb

     Self-consistent Calculation

     iteration #  1     ecut=     8.00 Ry     beta=0.70
     Davidson diagonalization with overlap
     ethr =  1.00E-06,  avg # of iterations =  1.8

     Threshold (ethr) on eigenvalues was too large:
     Diagonalizing with lowered threshold

     Davidson diagonalization with overlap
     ethr =  3.60E-09,  avg # of iterations =  1.0

     total cpu time spent up to now is        0.5 secs

     total energy              =     -15.54457083 Ry
     Harris-Foulkes estimate   =     -15.54457077 Ry
     estimated scf accuracy    <       0.00000029 Ry

     iteration #  2     ecut=     8.00 Ry     beta=0.70
     Davidson diagonalization with overlap
     ethr =  3.65E-09,  avg # of iterations =  1.0

     total cpu time spent up to now is        0.5 secs

     total energy              =     -15.54457084 Ry
     Harris-Foulkes estimate   =     -15.54457083 Ry
     estimated scf accuracy    <       0.00000002 Ry

     iteration #  3     ecut=     8.00 Ry     beta=0.70
     Davidson diagonalization with overlap
     ethr =  2.81E-10,  avg # of iterations =  1.0

     total cpu time spent up to now is        0.5 secs

     End of self-consistent calculation

          k = 0.0000 0.0000 0.0000 (   113 PWs)   bands (ev):

    -5.2219   6.5827   6.7703   6.7703

          k = 1.0000 0.0000 0.0000 (   108 PWs)   bands (ev):

    -1.0619  -0.9854   3.5822   3.6226

          k = 0.0000 1.0000 0.0000 (   108 PWs)   bands (ev):

    -1.0619  -0.9854   3.5822   3.6226

          k = 0.0000 0.0000 1.0000 (   108 PWs)   bands (ev):

    -1.0619  -0.9854   3.5822   3.6226

     highest occupied level (ev):     6.7703

!    total energy              =     -15.54457084 Ry
     Harris-Foulkes estimate   =     -15.54457084 Ry
     estimated scf accuracy    <          7.3E-11 Ry

     convergence has been achieved in   3 iterations

     Forces acting on atoms (Ry/au):

     atom    1 type  1   force =    -0.00840186   -0.00840195   -0.00840183
     atom    2 type  1   force =     0.00840186    0.00840195    0.00840183

     Total force =     0.020580     Total SCF correction =     0.000002

     Entering Dynamics:    iteration =    10
                           time      =   0.0097 pico-seconds


ATOMIC_POSITIONS (alat)
Si      -0.124047846  -0.124047832  -0.124047851
Si       0.124047846   0.124047832   0.124047851


     kinetic energy (Ekin) =     0.00061773 Ry
     temperature           =    65.02146308 K 
     Ekin + Etot (const)   =   -15.54395310 Ry

     Linear momentum :    0.0000000000    0.0000000000    0.0000000000

     Writing output data file pwscf.save

     second order wave-functions extrapolation
     NEW-OLD atomic charge density approx. for the potential

     total cpu time spent up to now is        0.5 secs

     per-process dynamical memory:     2.6 Mb

     Self-consistent Calculation

     iteration #  1     ecut=     8.00 Ry     beta=0.70
     Davidson diagonalization with overlap
     ethr =  1.00E-06,  avg # of iterations =  1.8

     Threshold (ethr) on eigenvalues was too large:
     Diagonalizing with lowered threshold

     Davidson diagonalization with overlap
     ethr =  4.16E-09,  avg # of iterations =  1.0

     total cpu time spent up to now is        0.6 secs

     total energy              =     -15.54465685 Ry
     Harris-Foulkes estimate   =     -15.54465678 Ry
     estimated scf accuracy    <       0.00000034 Ry

     iteration #  2     ecut=     8.00 Ry     beta=0.70
     Davidson diagonalization with overlap
     ethr =  4.21E-09,  avg # of iterations =  1.0

     total cpu time spent up to now is        0.6 secs

     total energy              =     -15.54465686 Ry
     Harris-Foulkes estimate   =     -15.54465685 Ry
     estimated scf accuracy    <       0.00000003 Ry

     iteration #  3     ecut=     8.00 Ry     beta=0.70
     Davidson diagonalization with overlap
     ethr =  3.25E-10,  avg # of iterations =  1.0

     total cpu time spent up to now is        0.6 secs

     End of self-consistent calculation

          k = 0.0000 0.0000 0.0000 (   113 PWs)   bands (ev):

    -5.2217   6.6027   6.7601   6.7601

          k = 1.0000 0.0000 0.0000 (   108 PWs)   bands (ev):

    -1.0554  -0.9914   3.5853   3.6193

          k = 0.0000 1.0000 0.0000 (   108 PWs)   bands (ev):

    -1.0554  -0.9914   3.5853   3.6193

          k = 0.0000 0.0000 1.0000 (   108 PWs)   bands (ev):

    -1.0554  -0.9914   3.5853   3.6193

     highest occupied level (ev):     6.7601

!    total energy              =     -15.54465686 Ry
     Harris-Foulkes estimate   =     -15.54465686 Ry
     estimated scf accuracy    <          8.1E-11 Ry

     convergence has been achieved in   3 iterations

     Forces acting on atoms (Ry/au):

     atom    1 type  1   force =    -0.00702178   -0.00702188   -0.00702175
     atom    2 type  1   force =     0.00702178    0.00702188    0.00702175

     Total force =     0.017200     Total SCF correction =     0.000002

     Entering Dynamics:    iteration =    11
                           time      =   0.0106 pico-seconds


ATOMIC_POSITIONS (alat)
Si      -0.124241275  -0.124241260  -0.124241281
Si       0.124241275   0.124241260   0.124241281


     kinetic energy (Ekin) =     0.00070352 Ry
     temperature           =    74.05116339 K 
     Ekin + Etot (const)   =   -15.54395334 Ry

     Linear momentum :    0.0000000000    0.0000000000    0.0000000000

     Writing output data file pwscf.save

     second order wave-functions extrapolation
     NEW-OLD atomic charge density approx. for the potential

     total cpu time spent up to now is        0.6 secs

     per-process dynamical memory:     2.6 Mb

     Self-consistent Calculation

     iteration #  1     ecut=     8.00 Ry     beta=0.70
     Davidson diagonalization with overlap
     ethr =  1.00E-06,  avg # of iterations =  1.8

     Threshold (ethr) on eigenvalues was too large:
     Diagonalizing with lowered threshold

     Davidson diagonalization with overlap
     ethr =  4.65E-09,  avg # of iterations =  1.0

     total cpu time spent up to now is        0.6 secs

     total energy              =     -15.54473124 Ry
     Harris-Foulkes estimate   =     -15.54473116 Ry
     estimated scf accuracy    <       0.00000038 Ry

     iteration #  2     ecut=     8.00 Ry     beta=0.70
     Davidson diagonalization with overlap
     ethr =  4.70E-09,  avg # of iterations =  1.0

     total cpu time spent up to now is        0.6 secs

     total energy              =     -15.54473125 Ry
     Harris-Foulkes estimate   =     -15.54473124 Ry
     estimated scf accuracy    <       0.00000003 Ry

     iteration #  3     ecut=     8.00 Ry     beta=0.70
     Davidson diagonalization with overlap
     ethr =  3.64E-10,  avg # of iterations =  1.0

     total cpu time spent up to now is        0.6 secs

     End of self-consistent calculation

          k = 0.0000 0.0000 0.0000 (   113 PWs)   bands (ev):

    -5.2215   6.6240   6.7494   6.7494

          k = 1.0000 0.0000 0.0000 (   108 PWs)   bands (ev):

    -1.0486  -0.9978   3.5886   3.6159

          k = 0.0000 1.0000 0.0000 (   108 PWs)   bands (ev):

    -1.0486  -0.9978   3.5886   3.6159

          k = 0.0000 0.0000 1.0000 (   108 PWs)   bands (ev):

    -1.0486  -0.9978   3.5886   3.6159

     highest occupied level (ev):     6.7494

!    total energy              =     -15.54473125 Ry
     Harris-Foulkes estimate   =     -15.54473125 Ry
     estimated scf accuracy    <          8.8E-11 Ry

     convergence has been achieved in   3 iterations

     Forces acting on atoms (Ry/au):

     atom    1 type  1   force =    -0.00557198   -0.00557208   -0.00557193
     atom    2 type  1   force =     0.00557198    0.00557208    0.00557193

     Total force =     0.013649     Total SCF correction =     0.000001

     Entering Dynamics:    iteration =    12
                           time      =   0.0116 pico-seconds


ATOMIC_POSITIONS (alat)
Si      -0.124443257  -0.124443241  -0.124443263
Si       0.124443257   0.124443241   0.124443263


     kinetic energy (Ekin) =     0.00077770 Ry
     temperature           =    81.85938098 K 
     Ekin + Etot (const)   =   -15.54395355 Ry

     Linear momentum :    0.0000000000    0.0000000000    0.0000000000

     Writing output data file pwscf.save

     second order wave-functions extrapolation
     NEW-OLD atomic charge density approx. for the potential

     total cpu time spent up to now is        0.6 secs

     per-process dynamical memory:     2.6 Mb

     Self-consistent Calculation

     iteration #  1     ecut=     8.00 Ry     beta=0.70
     Davidson diagonalization with overlap
     ethr =  1.00E-06,  avg # of iterations =  2.0

     Threshold (ethr) on eigenvalues was too large:
     Diagonalizing with lowered threshold

     Davidson diagonalization with overlap
     ethr =  5.07E-09,  avg # of iterations =  1.0

     total cpu time spent up to now is        0.7 secs

     total energy              =     -15.54479071 Ry
     Harris-Foulkes estimate   =     -15.54479062 Ry
     estimated scf accuracy    <       0.00000041 Ry

     iteration #  2     ecut=     8.00 Ry     beta=0.70
     Davidson diagonalization with overlap
     ethr =  5.11E-09,  avg # of iterations =  1.0

     total cpu time spent up to now is        0.7 secs

     total energy              =     -15.54479072 Ry
     Harris-Foulkes estimate   =     -15.54479071 Ry
     estimated scf accuracy    <       0.00000003 Ry

     iteration #  3     ecut=     8.00 Ry     beta=0.70
     Davidson diagonalization with overlap
     ethr =  3.96E-10,  avg # of iterations =  1.0

     total cpu time spent up to now is        0.7 secs

     End of self-consistent calculation

          k = 0.0000 0.0000 0.0000 (   113 PWs)   bands (ev):

    -5.2213   6.6461   6.7382   6.7382

          k = 1.0000 0.0000 0.0000 (   108 PWs)   bands (ev):

    -1.0416  -1.0045   3.5921   3.6122

          k = 0.0000 1.0000 0.0000 (   108 PWs)   bands (ev):

    -1.0416  -1.0045   3.5921   3.6122

          k = 0.0000 0.0000 1.0000 (   108 PWs)   bands (ev):

    -1.0416  -1.0045   3.5921   3.6122

     highest occupied level (ev):     6.7382

!    total energy              =     -15.54479072 Ry
     Harris-Foulkes estimate   =     -15.54479072 Ry
     estimated scf accuracy    <          9.2E-11 Ry

     convergence has been achieved in   3 iterations

     Forces acting on atoms (Ry/au):

     atom    1 type  1   force =    -0.00407083   -0.00407095   -0.00407078
     atom    2 type  1   force =     0.00407083    0.00407095    0.00407078

     Total force =     0.009972     Total SCF correction =     0.000001

     Entering Dynamics:    iteration =    13
                           time      =   0.0126 pico-seconds


ATOMIC_POSITIONS (alat)
Si      -0.124651487  -0.124651470  -0.124651493
Si       0.124651487   0.124651470   0.124651493


     kinetic energy (Ekin) =     0.00083701 Ry
     temperature           =    88.10250014 K 
     Ekin + Etot (const)   =   -15.54395371 Ry

     Linear momentum :    0.0000000000    0.0000000000    0.0000000000

     Writing output data file pwscf.save

     second order wave-functions extrapolation
     NEW-OLD atomic charge density approx. for the potential

     total cpu time spent up to now is        0.7 secs

     per-process dynamical memory:     2.6 Mb

     Self-consistent Calculation

     iteration #  1     ecut=     8.00 Ry     beta=0.70
     Davidson diagonalization with overlap
     ethr =  1.00E-06,  avg # of iterations =  2.0

     Threshold (ethr) on eigenvalues was too large:
     Diagonalizing with lowered threshold

     Davidson diagonalization with overlap
     ethr =  5.37E-09,  avg # of iterations =  1.0

     total cpu time spent up to now is        0.7 secs

     total energy              =     -15.54483272 Ry
     Harris-Foulkes estimate   =     -15.54483262 Ry
     estimated scf accuracy    <       0.00000043 Ry

     iteration #  2     ecut=     8.00 Ry     beta=0.70
     Davidson diagonalization with overlap
     ethr =  5.41E-09,  avg # of iterations =  1.0

     total cpu time spent up to now is        0.7 secs

     total energy              =     -15.54483273 Ry
     Harris-Foulkes estimate   =     -15.54483272 Ry
     estimated scf accuracy    <       0.00000003 Ry

     iteration #  3     ecut=     8.00 Ry     beta=0.70
     Davidson diagonalization with overlap
     ethr =  4.20E-10,  avg # of iterations =  1.0

     total cpu time spent up to now is        0.7 secs

     End of self-consistent calculation

          k = 0.0000 0.0000 0.0000 (   113 PWs)   bands (ev):

    -5.2212   6.6690   6.7266   6.7266

          k = 1.0000 0.0000 0.0000 (   108 PWs)   bands (ev):

    -1.0345  -1.0114   3.5958   3.6085

          k = 0.0000 1.0000 0.0000 (   108 PWs)   bands (ev):

    -1.0345  -1.0114   3.5958   3.6085

          k = 0.0000 0.0000 1.0000 (   108 PWs)   bands (ev):

    -1.0345  -1.0114   3.5958   3.6085

     highest occupied level (ev):     6.7266

!    total energy              =     -15.54483273 Ry
     Harris-Foulkes estimate   =     -15.54483273 Ry
     estimated scf accuracy    <          9.7E-11 Ry

     convergence has been achieved in   3 iterations

     Forces acting on atoms (Ry/au):

     atom    1 type  1   force =    -0.00253681   -0.00253693   -0.00253676
     atom    2 type  1   force =     0.00253681    0.00253693    0.00253676

     Total force =     0.006214     Total SCF correction =     0.000001

     Entering Dynamics:    iteration =    14
                           time      =   0.0135 pico-seconds


ATOMIC_POSITIONS (alat)
Si      -0.124863610  -0.124863593  -0.124863618
Si       0.124863610   0.124863593   0.124863618


     kinetic energy (Ekin) =     0.00087891 Ry
     temperature           =    92.51300711 K 
     Ekin + Etot (const)   =   -15.54395382 Ry

     Linear momentum :    0.0000000000    0.0000000000    0.0000000000

     Writing output data file pwscf.save

     second order wave-functions extrapolation
     NEW-OLD atomic charge density approx. for the potential

     total cpu time spent up to now is        0.7 secs

     per-process dynamical memory:     2.6 Mb

     Self-consistent Calculation

     iteration #  1     ecut=     8.00 Ry     beta=0.70
     Davidson diagonalization with overlap
     ethr =  1.00E-06,  avg # of iterations =  2.0

     Threshold (ethr) on eigenvalues was too large:
     Diagonalizing with lowered threshold

     Davidson diagonalization with overlap
     ethr =  5.55E-09,  avg # of iterations =  1.0

     total cpu time spent up to now is        0.8 secs

     total energy              =     -15.54485554 Ry
     Harris-Foulkes estimate   =     -15.54485544 Ry
     estimated scf accuracy    <       0.00000045 Ry

     iteration #  2     ecut=     8.00 Ry     beta=0.70
     Davidson diagonalization with overlap
     ethr =  5.59E-09,  avg # of iterations =  1.0

     total cpu time spent up to now is        0.8 secs

     total energy              =     -15.54485555 Ry
     Harris-Foulkes estimate   =     -15.54485554 Ry
     estimated scf accuracy    <       0.00000003 Ry

     iteration #  3     ecut=     8.00 Ry     beta=0.70
     Davidson diagonalization with overlap
     ethr =  4.36E-10,  avg # of iterations =  1.0

     total cpu time spent up to now is        0.8 secs

     End of self-consistent calculation

          k = 0.0000 0.0000 0.0000 (   113 PWs)   bands (ev):

    -5.2212   6.6924   6.7149   6.7149

          k = 1.0000 0.0000 0.0000 (   108 PWs)   bands (ev):

    -1.0274  -1.0184   3.5996   3.6046

          k = 0.0000 1.0000 0.0000 (   108 PWs)   bands (ev):

    -1.0274  -1.0184   3.5996   3.6046

          k = 0.0000 0.0000 1.0000 (   108 PWs)   bands (ev):

    -1.0274  -1.0184   3.5996   3.6046

     highest occupied level (ev):     6.7149

!    total energy              =     -15.54485556 Ry
     Harris-Foulkes estimate   =     -15.54485556 Ry
     estimated scf accuracy    <          9.9E-11 Ry

     convergence has been achieved in   3 iterations

     Forces acting on atoms (Ry/au):

     atom    1 type  1   force =    -0.00098811   -0.00098823   -0.00098805
     atom    2 type  1   force =     0.00098811    0.00098823    0.00098805

     Total force =     0.002420     Total SCF correction =     0.000001

     Entering Dynamics:    iteration =    15
                           time      =   0.0145 pico-seconds


ATOMIC_POSITIONS (alat)
Si      -0.125077251  -0.125077234  -0.125077258
Si       0.125077251   0.125077234   0.125077258


     kinetic energy (Ekin) =     0.00090169 Ry
     temperature           =    94.90991373 K 
     Ekin + Etot (const)   =   -15.54395387 Ry

     Linear momentum :    0.0000000000    0.0000000000    0.0000000000

     Writing output data file pwscf.save

     second order wave-functions extrapolation
     NEW-OLD atomic charge density approx. for the potential

     total cpu time spent up to now is        0.8 secs

     per-process dynamical memory:     2.6 Mb

     Self-consistent Calculation

     iteration #  1     ecut=     8.00 Ry     beta=0.70
     Davidson diagonalization with overlap
     ethr =  1.00E-06,  avg # of iterations =  2.0

     Threshold (ethr) on eigenvalues was too large:
     Diagonalizing with lowered threshold

     Davidson diagonalization with overlap
     ethr =  5.63E-09,  avg # of iterations =  1.0

     total cpu time spent up to now is        0.8 secs

     total energy              =     -15.54485834 Ry
     Harris-Foulkes estimate   =     -15.54485824 Ry
     estimated scf accuracy    <       0.00000045 Ry

     iteration #  2     ecut=     8.00 Ry     beta=0.70
     Davidson diagonalization with overlap
     ethr =  5.66E-09,  avg # of iterations =  1.0

     total cpu time spent up to now is        0.8 secs

     total energy              =     -15.54485835 Ry
     Harris-Foulkes estimate   =     -15.54485834 Ry
     estimated scf accuracy    <       0.00000004 Ry

     iteration #  3     ecut=     8.00 Ry     beta=0.70
     Davidson diagonalization with overlap
     ethr =  4.41E-10,  avg # of iterations =  1.0

     total cpu time spent up to now is        0.8 secs

     End of self-consistent calculation

          k = 0.0000 0.0000 0.0000 (   113 PWs)   bands (ev):

    -5.2212   6.7031   6.7031   6.7159

          k = 1.0000 0.0000 0.0000 (   108 PWs)   bands (ev):

    -1.0254  -1.0203   3.6007   3.6035

          k = 0.0000 1.0000 0.0000 (   108 PWs)   bands (ev):

    -1.0254  -1.0203   3.6007   3.6035

          k = 0.0000 0.0000 1.0000 (   108 PWs)   bands (ev):

    -1.0254  -1.0203   3.6007   3.6035

     highest occupied level (ev):     6.7159

!    total energy              =     -15.54485835 Ry
     Harris-Foulkes estimate   =     -15.54485835 Ry
     estimated scf accuracy    <          1.0E-10 Ry

     convergence has been achieved in   3 iterations

     Forces acting on atoms (Ry/au):

     atom    1 type  1   force =     0.00055751    0.00055738    0.00055756
     atom    2 type  1   force =    -0.00055751   -0.00055738   -0.00055756

     Total force =     0.001366     Total SCF correction =     0.000001

     Entering Dynamics:    iteration =    16
                           time      =   0.0155 pico-seconds


ATOMIC_POSITIONS (alat)
Si      -0.125290036  -0.125290018  -0.125290043
Si       0.125290036   0.125290018   0.125290043


     kinetic energy (Ekin) =     0.00090449 Ry
     temperature           =    95.20484612 K 
     Ekin + Etot (const)   =   -15.54395387 Ry

     Linear momentum :    0.0000000000    0.0000000000    0.0000000000

     Writing output data file pwscf.save

     second order wave-functions extrapolation
     NEW-OLD atomic charge density approx. for the potential

     total cpu time spent up to now is        0.8 secs

     per-process dynamical memory:     2.6 Mb

     Self-consistent Calculation

     iteration #  1     ecut=     8.00 Ry     beta=0.70
     Davidson diagonalization with overlap
     ethr =  1.00E-06,  avg # of iterations =  2.0

     Threshold (ethr) on eigenvalues was too large:
     Diagonalizing with lowered threshold

     Davidson diagonalization with overlap
     ethr =  5.55E-09,  avg # of iterations =  1.0

     total cpu time spent up to now is        0.9 secs

     total energy              =     -15.54484117 Ry
     Harris-Foulkes estimate   =     -15.54484107 Ry
     estimated scf accuracy    <       0.00000045 Ry

     iteration #  2     ecut=     8.00 Ry     beta=0.70
     Davidson diagonalization with overlap
     ethr =  5.59E-09,  avg # of iterations =  1.0

     total cpu time spent up to now is        0.9 secs

     total energy              =     -15.54484119 Ry
     Harris-Foulkes estimate   =     -15.54484117 Ry
     estimated scf accuracy    <       0.00000004 Ry

     iteration #  3     ecut=     8.00 Ry     beta=0.70
     Davidson diagonalization with overlap
     ethr =  4.38E-10,  avg # of iterations =  1.0

     total cpu time spent up to now is        0.9 secs

     End of self-consistent calculation

          k = 0.0000 0.0000 0.0000 (   113 PWs)   bands (ev):

    -5.2212   6.6914   6.6914   6.7394

          k = 1.0000 0.0000 0.0000 (   108 PWs)   bands (ev):

    -1.0324  -1.0134   3.5967   3.6075

          k = 0.0000 1.0000 0.0000 (   108 PWs)   bands (ev):

    -1.0324  -1.0134   3.5967   3.6075

          k = 0.0000 0.0000 1.0000 (   108 PWs)   bands (ev):

    -1.0324  -1.0134   3.5967   3.6075

     highest occupied level (ev):     6.7394

!    total energy              =     -15.54484119 Ry
     Harris-Foulkes estimate   =     -15.54484119 Ry
     estimated scf accuracy    <          9.7E-11 Ry

     convergence has been achieved in   3 iterations

     Forces acting on atoms (Ry/au):

     atom    1 type  1   force =     0.00208283    0.00208270    0.00208289
     atom    2 type  1   force =    -0.00208283   -0.00208270   -0.00208289

     Total force =     0.005102     Total SCF correction =     0.000001

     Entering Dynamics:    iteration =    17
                           time      =   0.0164 pico-seconds


ATOMIC_POSITIONS (alat)
Si      -0.125499624  -0.125499606  -0.125499631
Si       0.125499624   0.125499606   0.125499631


     kinetic energy (Ekin) =     0.00088738 Ry
     temperature           =    93.40381534 K 
     Ekin + Etot (const)   =   -15.54395381 Ry

     Linear momentum :    0.0000000000    0.0000000000    0.0000000000

     Writing output data file pwscf.save

     second order wave-functions extrapolation
     NEW-OLD atomic charge density approx. for the potential

     total cpu time spent up to now is        0.9 secs

     per-process dynamical memory:     2.6 Mb

     Self-consistent Calculation

     iteration #  1     ecut=     8.00 Ry     beta=0.70
     Davidson diagonalization with overlap
     ethr =  1.00E-06,  avg # of iterations =  2.0

     Threshold (ethr) on eigenvalues was too large:
     Diagonalizing with lowered threshold

     Davidson diagonalization with overlap
     ethr =  5.36E-09,  avg # of iterations =  1.0

     total cpu time spent up to now is        0.9 secs

     total energy              =     -15.54480497 Ry
     Harris-Foulkes estimate   =     -15.54480487 Ry
     estimated scf accuracy    <       0.00000043 Ry

     iteration #  2     ecut=     8.00 Ry     beta=0.70
     Davidson diagonalization with overlap
     ethr =  5.40E-09,  avg # of iterations =  1.0

     total cpu time spent up to now is        0.9 secs

     total energy              =     -15.54480498 Ry
     Harris-Foulkes estimate   =     -15.54480497 Ry
     estimated scf accuracy    <       0.00000003 Ry

     iteration #  3     ecut=     8.00 Ry     beta=0.70
     Davidson diagonalization with overlap
     ethr =  4.24E-10,  avg # of iterations =  1.0

     total cpu time spent up to now is        0.9 secs

     End of self-consistent calculation

          k = 0.0000 0.0000 0.0000 (   113 PWs)   bands (ev):

    -5.2213   6.6799   6.6799   6.7625

          k = 1.0000 0.0000 0.0000 (   108 PWs)   bands (ev):

    -1.0392  -1.0068   3.5928   3.6115

          k = 0.0000 1.0000 0.0000 (   108 PWs)   bands (ev):

    -1.0392  -1.0068   3.5928   3.6115

          k = 0.0000 0.0000 1.0000 (   108 PWs)   bands (ev):

    -1.0392  -1.0068   3.5928   3.6115

     highest occupied level (ev):     6.7625

!    total energy              =     -15.54480498 Ry
     Harris-Foulkes estimate   =     -15.54480498 Ry
     estimated scf accuracy    <          9.2E-11 Ry

     convergence has been achieved in   3 iterations

     Forces acting on atoms (Ry/au):

     atom    1 type  1   force =     0.00357166    0.00357153    0.00357171
     atom    2 type  1   force =    -0.00357166   -0.00357153   -0.00357171

     Total force =     0.008749     Total SCF correction =     0.000000

     Entering Dynamics:    iteration =    18
                           time      =   0.0174 pico-seconds


ATOMIC_POSITIONS (alat)
Si      -0.125703729  -0.125703712  -0.125703737
Si       0.125703729   0.125703712   0.125703737


     kinetic energy (Ekin) =     0.00085128 Ry
     temperature           =    89.60458712 K 
     Ekin + Etot (const)   =   -15.54395370 Ry

     Linear momentum :    0.0000000000    0.0000000000    0.0000000000

     Writing output data file pwscf.save

     second order wave-functions extrapolation
     NEW-OLD atomic charge density approx. for the potential

     total cpu time spent up to now is        0.9 secs

     per-process dynamical memory:     2.6 Mb

     Self-consistent Calculation

     iteration #  1     ecut=     8.00 Ry     beta=0.70
     Davidson diagonalization with overlap
     ethr =  1.00E-06,  avg # of iterations =  2.0

     Threshold (ethr) on eigenvalues was too large:
     Diagonalizing with lowered threshold

     Davidson diagonalization with overlap
     ethr =  5.05E-09,  avg # of iterations =  1.0

     total cpu time spent up to now is        0.9 secs

     total energy              =     -15.54475148 Ry
     Harris-Foulkes estimate   =     -15.54475138 Ry
     estimated scf accuracy    <       0.00000041 Ry

     iteration #  2     ecut=     8.00 Ry     beta=0.70
     Davidson diagonalization with overlap
     ethr =  5.10E-09,  avg # of iterations =  1.0

     total cpu time spent up to now is        1.0 secs

     total energy              =     -15.54475149 Ry
     Harris-Foulkes estimate   =     -15.54475148 Ry
     estimated scf accuracy    <       0.00000003 Ry

     iteration #  3     ecut=     8.00 Ry     beta=0.70
     Davidson diagonalization with overlap
     ethr =  4.02E-10,  avg # of iterations =  1.0

     total cpu time spent up to now is        1.0 secs

     End of self-consistent calculation

          k = 0.0000 0.0000 0.0000 (   113 PWs)   bands (ev):

    -5.2214   6.6688   6.6688   6.7851

          k = 1.0000 0.0000 0.0000 (   108 PWs)   bands (ev):

    -1.0459  -1.0004   3.5890   3.6154

          k = 0.0000 1.0000 0.0000 (   108 PWs)   bands (ev):

    -1.0459  -1.0004   3.5890   3.6154

          k = 0.0000 0.0000 1.0000 (   108 PWs)   bands (ev):

    -1.0459  -1.0004   3.5890   3.6154

     highest occupied level (ev):     6.7851

!    total energy              =     -15.54475149 Ry
     Harris-Foulkes estimate   =     -15.54475149 Ry
     estimated scf accuracy    <          8.7E-11 Ry

     convergence has been achieved in   3 iterations

     Forces acting on atoms (Ry/au):

     atom    1 type  1   force =     0.00500867    0.00500854    0.00500872
     atom    2 type  1   force =    -0.00500867   -0.00500854   -0.00500872

     Total force =     0.012269     Total SCF correction =     0.000000

     Entering Dynamics:    iteration =    19
                           time      =   0.0184 pico-seconds


ATOMIC_POSITIONS (alat)
Si      -0.125900147  -0.125900130  -0.125900154
Si       0.125900147   0.125900130   0.125900154


     kinetic energy (Ekin) =     0.00079794 Ry
     temperature           =    83.99014805 K 
     Ekin + Etot (const)   =   -15.54395355 Ry

     Linear momentum :    0.0000000000    0.0000000000    0.0000000000

     Writing output data file pwscf.save

     second order wave-functions extrapolation
     NEW-OLD atomic charge density approx. for the potential

     total cpu time spent up to now is        1.0 secs

     per-process dynamical memory:     2.6 Mb

     Self-consistent Calculation

     iteration #  1     ecut=     8.00 Ry     beta=0.70
     Davidson diagonalization with overlap
     ethr =  1.00E-06,  avg # of iterations =  2.0

     Threshold (ethr) on eigenvalues was too large:
     Diagonalizing with lowered threshold

     Davidson diagonalization with overlap
     ethr =  4.66E-09,  avg # of iterations =  1.0

     total cpu time spent up to now is        1.0 secs

     total energy              =     -15.54468316 Ry
     Harris-Foulkes estimate   =     -15.54468307 Ry
     estimated scf accuracy    <       0.00000038 Ry

     iteration #  2     ecut=     8.00 Ry     beta=0.70
     Davidson diagonalization with overlap
     ethr =  4.71E-09,  avg # of iterations =  1.0

     total cpu time spent up to now is        1.0 secs

     total energy              =     -15.54468317 Ry
     Harris-Foulkes estimate   =     -15.54468316 Ry
     estimated scf accuracy    <       0.00000003 Ry

     iteration #  3     ecut=     8.00 Ry     beta=0.70
     Davidson diagonalization with overlap
     ethr =  3.72E-10,  avg # of iterations =  1.0

     total cpu time spent up to now is        1.0 secs

     End of self-consistent calculation

          k = 0.0000 0.0000 0.0000 (   113 PWs)   bands (ev):

    -5.2216   6.6580   6.6580   6.8069

          k = 1.0000 0.0000 0.0000 (   108 PWs)   bands (ev):

    -1.0523  -0.9944   3.5853   3.6192

          k = 0.0000 1.0000 0.0000 (   108 PWs)   bands (ev):

    -1.0523  -0.9944   3.5853   3.6192

          k = 0.0000 0.0000 1.0000 (   108 PWs)   bands (ev):

    -1.0523  -0.9944   3.5853   3.6192

     highest occupied level (ev):     6.8069

!    total energy              =     -15.54468317 Ry
     Harris-Foulkes estimate   =     -15.54468317 Ry
     estimated scf accuracy    <          8.0E-11 Ry

     convergence has been achieved in   3 iterations

     Forces acting on atoms (Ry/au):

     atom    1 type  1   force =     0.00637964    0.00637951    0.00637969
     atom    2 type  1   force =    -0.00637964   -0.00637951   -0.00637969

     Total force =     0.015627     Total SCF correction =     0.000000

     Entering Dynamics:    iteration =    20
                           time      =   0.0194 pico-seconds


ATOMIC_POSITIONS (alat)
Si      -0.126086772  -0.126086756  -0.126086779
Si       0.126086772   0.126086756   0.126086779


     kinetic energy (Ekin) =     0.00072981 Ry
     temperature           =    76.81884608 K 
     Ekin + Etot (const)   =   -15.54395336 Ry

     Linear momentum :    0.0000000000    0.0000000000    0.0000000000

     Writing output data file pwscf.save

     second order wave-functions extrapolation
     NEW-OLD atomic charge density approx. for the potential

     total cpu time spent up to now is        1.0 secs

     per-process dynamical memory:     2.6 Mb

     Self-consistent Calculation

     iteration #  1     ecut=     8.00 Ry     beta=0.70
     Davidson diagonalization with overlap
     ethr =  1.00E-06,  avg # of iterations =  2.0

     Threshold (ethr) on eigenvalues was too large:
     Diagonalizing with lowered threshold

     Davidson diagonalization with overlap
     ethr =  4.20E-09,  avg # of iterations =  1.0

     total cpu time spent up to now is        1.0 secs

     total energy              =     -15.54460307 Ry
     Harris-Foulkes estimate   =     -15.54460299 Ry
     estimated scf accuracy    <       0.00000034 Ry

     iteration #  2     ecut=     8.00 Ry     beta=0.70
     Davidson diagonalization with overlap
     ethr =  4.24E-09,  avg # of iterations =  1.0

     total cpu time spent up to now is        1.1 secs

     total energy              =     -15.54460308 Ry
     Harris-Foulkes estimate   =     -15.54460307 Ry
     estimated scf accuracy    <       0.00000003 Ry

     iteration #  3     ecut=     8.00 Ry     beta=0.70
     Davidson diagonalization with overlap
     ethr =  3.35E-10,  avg # of iterations =  1.0

     total cpu time spent up to now is        1.1 secs

     End of self-consistent calculation

          k = 0.0000 0.0000 0.0000 (   113 PWs)   bands (ev):

    -5.2218   6.6478   6.6478   6.8276

          k = 1.0000 0.0000 0.0000 (   108 PWs)   bands (ev):

    -1.0584  -0.9887   3.5818   3.6230

          k = 0.0000 1.0000 0.0000 (   108 PWs)   bands (ev):

    -1.0584  -0.9887   3.5818   3.6230

          k = 0.0000 0.0000 1.0000 (   108 PWs)   bands (ev):

    -1.0584  -0.9887   3.5818   3.6230

     highest occupied level (ev):     6.8276

!    total energy              =     -15.54460308 Ry
     Harris-Foulkes estimate   =     -15.54460308 Ry
     estimated scf accuracy    <          7.2E-11 Ry

     convergence has been achieved in   3 iterations

     Forces acting on atoms (Ry/au):

     atom    1 type  1   force =     0.00767151    0.00767139    0.00767156
     atom    2 type  1   force =    -0.00767151   -0.00767139   -0.00767156

     Total force =     0.018791     Total SCF correction =     0.000000

     Entering Dynamics:    iteration =    21
                           time      =   0.0203 pico-seconds


ATOMIC_POSITIONS (alat)
Si      -0.126261622  -0.126261607  -0.126261629
Si       0.126261622   0.126261607   0.126261629


     kinetic energy (Ekin) =     0.00064994 Ry
     temperature           =    68.41165952 K 
     Ekin + Etot (const)   =   -15.54395314 Ry

     Linear momentum :    0.0000000000    0.0000000000    0.0000000000

     Writing output data file pwscf.save

     second order wave-functions extrapolation
     NEW-OLD atomic charge density approx. for the potential

     total cpu time spent up to now is        1.1 secs

     per-process dynamical memory:     2.6 Mb

     Self-consistent Calculation

     iteration #  1     ecut=     8.00 Ry     beta=0.70
     Davidson diagonalization with overlap
     ethr =  1.00E-06,  avg # of iterations =  1.8

     Threshold (ethr) on eigenvalues was too large:
     Diagonalizing with lowered threshold

     Davidson diagonalization with overlap
     ethr =  3.67E-09,  avg # of iterations =  1.0

     total cpu time spent up to now is        1.1 secs

     total energy              =     -15.54451472 Ry
     Harris-Foulkes estimate   =     -15.54451465 Ry
     estimated scf accuracy    <       0.00000030 Ry

     iteration #  2     ecut=     8.00 Ry     beta=0.70
     Davidson diagonalization with overlap
     ethr =  3.71E-09,  avg # of iterations =  1.0

     total cpu time spent up to now is        1.1 secs

     total energy              =     -15.54451473 Ry
     Harris-Foulkes estimate   =     -15.54451472 Ry
     estimated scf accuracy    <       0.00000002 Ry

     iteration #  3     ecut=     8.00 Ry     beta=0.70
     Davidson diagonalization with overlap
     ethr =  2.93E-10,  avg # of iterations =  1.0

     total cpu time spent up to now is        1.1 secs

     End of self-consistent calculation

          k = 0.0000 0.0000 0.0000 (   113 PWs)   bands (ev):

    -5.2220   6.6383   6.6383   6.8470

          k = 1.0000 0.0000 0.0000 (   108 PWs)   bands (ev):

    -1.0641  -0.9835   3.5784   3.6265

          k = 0.0000 1.0000 0.0000 (   108 PWs)   bands (ev):

    -1.0641  -0.9835   3.5784   3.6265

          k = 0.0000 0.0000 1.0000 (   108 PWs)   bands (ev):

    -1.0641  -0.9835   3.5784   3.6265

     highest occupied level (ev):     6.8470

!    total energy              =     -15.54451473 Ry
     Harris-Foulkes estimate   =     -15.54451473 Ry
     estimated scf accuracy    <          6.2E-11 Ry

     convergence has been achieved in   3 iterations

     Forces acting on atoms (Ry/au):

     atom    1 type  1   force =     0.00887246    0.00887235    0.00887251
     atom    2 type  1   force =    -0.00887246   -0.00887235   -0.00887251

     Total force =     0.021733     Total SCF correction =     0.000000

     Entering Dynamics:    iteration =    22
                           time      =   0.0213 pico-seconds


ATOMIC_POSITIONS (alat)
Si      -0.126422853  -0.126422839  -0.126422860
Si       0.126422853   0.126422839   0.126422860


     kinetic energy (Ekin) =     0.00056183 Ry
     temperature           =    59.13731956 K 
     Ekin + Etot (const)   =   -15.54395290 Ry

     Linear momentum :    0.0000000000    0.0000000000    0.0000000000

     Writing output data file pwscf.save

     second order wave-functions extrapolation
     NEW-OLD atomic charge density approx. for the potential

     total cpu time spent up to now is        1.1 secs

     per-process dynamical memory:     2.6 Mb

     Self-consistent Calculation

     iteration #  1     ecut=     8.00 Ry     beta=0.70
     Davidson diagonalization with overlap
     ethr =  1.00E-06,  avg # of iterations =  1.8

     Threshold (ethr) on eigenvalues was too large:
     Diagonalizing with lowered threshold

     Davidson diagonalization with overlap
     ethr =  3.10E-09,  avg # of iterations =  1.0

     total cpu time spent up to now is        1.1 secs

     total energy              =     -15.54442193 Ry
     Harris-Foulkes estimate   =     -15.54442187 Ry
     estimated scf accuracy    <       0.00000025 Ry

     iteration #  2     ecut=     8.00 Ry     beta=0.70
     Davidson diagonalization with overlap
     ethr =  3.14E-09,  avg # of iterations =  1.0

     total cpu time spent up to now is        1.2 secs

     total energy              =     -15.54442194 Ry
     Harris-Foulkes estimate   =     -15.54442193 Ry
     estimated scf accuracy    <       0.00000002 Ry

     iteration #  3     ecut=     8.00 Ry     beta=0.70
     Davidson diagonalization with overlap
     ethr =  2.50E-10,  avg # of iterations =  1.0

     total cpu time spent up to now is        1.2 secs

     End of self-consistent calculation

          k = 0.0000 0.0000 0.0000 (   113 PWs)   bands (ev):

    -5.2222   6.6296   6.6296   6.8649

          k = 1.0000 0.0000 0.0000 (   108 PWs)   bands (ev):

    -1.0693  -0.9788   3.5754   3.6298

          k = 0.0000 1.0000 0.0000 (   108 PWs)   bands (ev):

    -1.0693  -0.9788   3.5754   3.6298

          k = 0.0000 0.0000 1.0000 (   108 PWs)   bands (ev):

    -1.0693  -0.9788   3.5754   3.6298

     highest occupied level (ev):     6.8649

!    total energy              =     -15.54442194 Ry
     Harris-Foulkes estimate   =     -15.54442194 Ry
     estimated scf accuracy    <          4.8E-11 Ry

     convergence has been achieved in   3 iterations

     Forces acting on atoms (Ry/au):

     atom    1 type  1   force =     0.00997179    0.00997169    0.00997184
     atom    2 type  1   force =    -0.00997179   -0.00997169   -0.00997184

     Total force =     0.024426     Total SCF correction =     0.000001

     Entering Dynamics:    iteration =    23
                           time      =   0.0223 pico-seconds


ATOMIC_POSITIONS (alat)
Si      -0.126568778  -0.126568765  -0.126568784
Si       0.126568778   0.126568765   0.126568784


     kinetic energy (Ekin) =     0.00046928 Ry
     temperature           =    49.39607086 K 
     Ekin + Etot (const)   =   -15.54395265 Ry

     Linear momentum :    0.0000000000    0.0000000000    0.0000000000

     Writing output data file pwscf.save

     second order wave-functions extrapolation
     NEW-OLD atomic charge density approx. for the potential

     total cpu time spent up to now is        1.2 secs

     per-process dynamical memory:     2.6 Mb

     Self-consistent Calculation

     iteration #  1     ecut=     8.00 Ry     beta=0.70
     Davidson diagonalization with overlap
     ethr =  1.00E-06,  avg # of iterations =  1.8

     Threshold (ethr) on eigenvalues was too large:
     Diagonalizing with lowered threshold

     Davidson diagonalization with overlap
     ethr =  2.53E-09,  avg # of iterations =  1.0

     total cpu time spent up to now is        1.2 secs

     total energy              =     -15.54432865 Ry
     Harris-Foulkes estimate   =     -15.54432860 Ry
     estimated scf accuracy    <       0.00000021 Ry

     iteration #  2     ecut=     8.00 Ry     beta=0.70
     Davidson diagonalization with overlap
     ethr =  2.56E-09,  avg # of iterations =  1.0

     total cpu time spent up to now is        1.2 secs

     total energy              =     -15.54432865 Ry
     Harris-Foulkes estimate   =     -15.54432865 Ry
     estimated scf accuracy    <       0.00000002 Ry

     iteration #  3     ecut=     8.00 Ry     beta=0.70
     Davidson diagonalization with overlap
     ethr =  2.04E-10,  avg # of iterations =  1.0

     total cpu time spent up to now is        1.2 secs

     End of self-consistent calculation

          k = 0.0000 0.0000 0.0000 (   113 PWs)   bands (ev):

    -5.2225   6.6216   6.6216   6.8811

          k = 1.0000 0.0000 0.0000 (   108 PWs)   bands (ev):

    -1.0740  -0.9746   3.5726   3.6328

          k = 0.0000 1.0000 0.0000 (   108 PWs)   bands (ev):

    -1.0740  -0.9746   3.5726   3.6328

          k = 0.0000 0.0000 1.0000 (   108 PWs)   bands (ev):

    -1.0740  -0.9746   3.5726   3.6328

     highest occupied level (ev):     6.8811

!    total energy              =     -15.54432865 Ry
     Harris-Foulkes estimate   =     -15.54432865 Ry
     estimated scf accuracy    <          3.8E-11 Ry

     convergence has been achieved in   3 iterations

     Forces acting on atoms (Ry/au):

     atom    1 type  1   force =     0.01096020    0.01096011    0.01096025
     atom    2 type  1   force =    -0.01096020   -0.01096011   -0.01096025

     Total force =     0.026847     Total SCF correction =     0.000001

     Entering Dynamics:    iteration =    24
                           time      =   0.0232 pico-seconds


ATOMIC_POSITIONS (alat)
Si      -0.126697879  -0.126697868  -0.126697885
Si       0.126697879   0.126697868   0.126697885


     kinetic energy (Ekin) =     0.00037624 Ry
     temperature           =    39.60263583 K 
     Ekin + Etot (const)   =   -15.54395241 Ry

     Linear momentum :    0.0000000000    0.0000000000    0.0000000000

     Writing output data file pwscf.save

     second order wave-functions extrapolation
     NEW-OLD atomic charge density approx. for the potential

     total cpu time spent up to now is        1.2 secs

     per-process dynamical memory:     2.6 Mb

     Self-consistent Calculation

     iteration #  1     ecut=     8.00 Ry     beta=0.70
     Davidson diagonalization with overlap
     ethr =  1.00E-06,  avg # of iterations =  1.8

     Threshold (ethr) on eigenvalues was too large:
     Diagonalizing with lowered threshold

     Davidson diagonalization with overlap
     ethr =  1.98E-09,  avg # of iterations =  1.0

     total cpu time spent up to now is        1.2 secs

     total energy              =     -15.54423879 Ry
     Harris-Foulkes estimate   =     -15.54423875 Ry
     estimated scf accuracy    <       0.00000016 Ry

     iteration #  2     ecut=     8.00 Ry     beta=0.70
     Davidson diagonalization with overlap
     ethr =  2.00E-09,  avg # of iterations =  1.0

     total cpu time spent up to now is        1.2 secs

     total energy              =     -15.54423880 Ry
     Harris-Foulkes estimate   =     -15.54423879 Ry
     estimated scf accuracy    <       0.00000001 Ry

     iteration #  3     ecut=     8.00 Ry     beta=0.70
     Davidson diagonalization with overlap
     ethr =  1.60E-10,  avg # of iterations =  1.0

     total cpu time spent up to now is        1.3 secs

     End of self-consistent calculation

          k = 0.0000 0.0000 0.0000 (   113 PWs)   bands (ev):

    -5.2227   6.6146   6.6146   6.8954

          k = 1.0000 0.0000 0.0000 (   108 PWs)   bands (ev):

    -1.0782  -0.9709   3.5701   3.6354

          k = 0.0000 1.0000 0.0000 (   108 PWs)   bands (ev):

    -1.0782  -0.9709   3.5701   3.6354

          k = 0.0000 0.0000 1.0000 (   108 PWs)   bands (ev):

    -1.0782  -0.9709   3.5701   3.6354

     highest occupied level (ev):     6.8954

!    total energy              =     -15.54423880 Ry
     Harris-Foulkes estimate   =     -15.54423880 Ry
     estimated scf accuracy    <          2.9E-11 Ry

     convergence has been achieved in   3 iterations

     Forces acting on atoms (Ry/au):

     atom    1 type  1   force =     0.01182935    0.01182927    0.01182940
     atom    2 type  1   force =    -0.01182935   -0.01182927   -0.01182940

     Total force =     0.028976     Total SCF correction =     0.000001

     Entering Dynamics:    iteration =    25
                           time      =   0.0242 pico-seconds


ATOMIC_POSITIONS (alat)
Si      -0.126808824  -0.126808814  -0.126808829
Si       0.126808824   0.126808814   0.126808829


     kinetic energy (Ekin) =     0.00028662 Ry
     temperature           =    30.16920304 K 
     Ekin + Etot (const)   =   -15.54395218 Ry

     Linear momentum :    0.0000000000    0.0000000000    0.0000000000

     Writing output data file pwscf.save

     second order wave-functions extrapolation
     NEW-OLD atomic charge density approx. for the potential

     total cpu time spent up to now is        1.3 secs

     per-process dynamical memory:     2.6 Mb

     Self-consistent Calculation

     iteration #  1     ecut=     8.00 Ry     beta=0.70
     Davidson diagonalization with overlap
     ethr =  1.00E-06,  avg # of iterations =  1.0

     Threshold (ethr) on eigenvalues was too large:
     Diagonalizing with lowered threshold

     Davidson diagonalization with overlap
     ethr =  1.44E-09,  avg # of iterations =  1.0

     total cpu time spent up to now is        1.3 secs

     total energy              =     -15.54415612 Ry
     Harris-Foulkes estimate   =     -15.54415609 Ry
     estimated scf accuracy    <       0.00000012 Ry

     iteration #  2     ecut=     8.00 Ry     beta=0.70
     Davidson diagonalization with overlap
     ethr =  1.47E-09,  avg # of iterations =  1.0

     total cpu time spent up to now is        1.3 secs

     End of self-consistent calculation

          k = 0.0000 0.0000 0.0000 (   113 PWs)   bands (ev):

    -5.2229   6.6086   6.6086   6.9078

          k = 1.0000 0.0000 0.0000 (   108 PWs)   bands (ev):

    -1.0818  -0.9677   3.5679   3.6378

          k = 0.0000 1.0000 0.0000 (   108 PWs)   bands (ev):

    -1.0818  -0.9677   3.5679   3.6378

          k = 0.0000 0.0000 1.0000 (   108 PWs)   bands (ev):

    -1.0818  -0.9677   3.5679   3.6378

     highest occupied level (ev):     6.9078

!    total energy              =     -15.54415612 Ry
     Harris-Foulkes estimate   =     -15.54415612 Ry
     estimated scf accuracy    <          9.5E-09 Ry

     convergence has been achieved in   2 iterations

     Forces acting on atoms (Ry/au):

     atom    1 type  1   force =     0.01257536    0.01257529    0.01257541
     atom    2 type  1   force =    -0.01257536   -0.01257529   -0.01257541

     Total force =     0.030803     Total SCF correction =     0.000014

     Entering Dynamics:    iteration =    26
                           time      =   0.0252 pico-seconds


ATOMIC_POSITIONS (alat)
Si      -0.126900465  -0.126900457  -0.126900470
Si       0.126900465   0.126900457   0.126900470


     kinetic energy (Ekin) =     0.00020415 Ry
     temperature           =    21.48794884 K 
     Ekin + Etot (const)   =   -15.54395197 Ry

     Linear momentum :    0.0000000000    0.0000000000    0.0000000000

     Writing output data file pwscf.save

     second order wave-functions extrapolation
     NEW-OLD atomic charge density approx. for the potential

     total cpu time spent up to now is        1.3 secs

     per-process dynamical memory:     2.6 Mb

     Self-consistent Calculation

     iteration #  1     ecut=     8.00 Ry     beta=0.70
     Davidson diagonalization with overlap
     ethr =  1.00E-06,  avg # of iterations =  1.0

     Threshold (ethr) on eigenvalues was too large:
     Diagonalizing with lowered threshold

     Davidson diagonalization with overlap
     ethr =  9.79E-10,  avg # of iterations =  1.0

     total cpu time spent up to now is        1.3 secs

     total energy              =     -15.54408403 Ry
     Harris-Foulkes estimate   =     -15.54408401 Ry
     estimated scf accuracy    <       0.00000008 Ry

     iteration #  2     ecut=     8.00 Ry     beta=0.70
     Davidson diagonalization with overlap
     ethr =  9.82E-10,  avg # of iterations =  1.0

     total cpu time spent up to now is        1.3 secs

     End of self-consistent calculation

          k = 0.0000 0.0000 0.0000 (   113 PWs)   bands (ev):

    -5.2230   6.6037   6.6037   6.9180

          k = 1.0000 0.0000 0.0000 (   108 PWs)   bands (ev):

    -1.0847  -0.9652   3.5661   3.6397

          k = 0.0000 1.0000 0.0000 (   108 PWs)   bands (ev):

    -1.0847  -0.9652   3.5661   3.6397

          k = 0.0000 0.0000 1.0000 (   108 PWs)   bands (ev):

    -1.0847  -0.9652   3.5661   3.6397

     highest occupied level (ev):     6.9180

!    total energy              =     -15.54408404 Ry
     Harris-Foulkes estimate   =     -15.54408403 Ry
     estimated scf accuracy    <          6.2E-09 Ry

     convergence has been achieved in   2 iterations

     Forces acting on atoms (Ry/au):

     atom    1 type  1   force =     0.01318579    0.01318573    0.01318583
     atom    2 type  1   force =    -0.01318579   -0.01318573   -0.01318583

     Total force =     0.032298     Total SCF correction =     0.000011

     Entering Dynamics:    iteration =    27
                           time      =   0.0261 pico-seconds


ATOMIC_POSITIONS (alat)
Si      -0.126971868  -0.126971861  -0.126971872
Si       0.126971868   0.126971861   0.126971872


     kinetic energy (Ekin) =     0.00013223 Ry
     temperature           =    13.91833318 K 
     Ekin + Etot (const)   =   -15.54395181 Ry

     Linear momentum :    0.0000000000    0.0000000000    0.0000000000

     Writing output data file pwscf.save

     second order wave-functions extrapolation
     NEW-OLD atomic charge density approx. for the potential

     total cpu time spent up to now is        1.4 secs

     per-process dynamical memory:     2.6 Mb

     Self-consistent Calculation

     iteration #  1     ecut=     8.00 Ry     beta=0.70
     Davidson diagonalization with overlap
     ethr =  1.00E-06,  avg # of iterations =  1.0

     Threshold (ethr) on eigenvalues was too large:
     Diagonalizing with lowered threshold

     Davidson diagonalization with overlap
     ethr =  5.85E-10,  avg # of iterations =  1.0

[...]
    -5.2231   6.6024   6.6024   6.9207

          k = 1.0000 0.0000 0.0000 (   108 PWs)   bands (ev):

    -1.0855  -0.9645   3.5657   3.6402

          k = 0.0000 1.0000 0.0000 (   108 PWs)   bands (ev):

    -1.0855  -0.9645   3.5657   3.6402

          k = 0.0000 0.0000 1.0000 (   108 PWs)   bands (ev):

    -1.0855  -0.9645   3.5657   3.6402

     highest occupied level (ev):     6.9207

!    total energy              =     -15.54406418 Ry
     Harris-Foulkes estimate   =     -15.54406418 Ry
     estimated scf accuracy    <          3.2E-09 Ry

     convergence has been achieved in   2 iterations

     Forces acting on atoms (Ry/au):

     atom    1 type  1   force =     0.01334450    0.01334454    0.01334450
     atom    2 type  1   force =    -0.01334450   -0.01334454   -0.01334450

     Total force =     0.032687     Total SCF correction =     0.000008

     Entering Dynamics:    iteration =    94
                           time      =   0.0910 pico-seconds


ATOMIC_POSITIONS (alat)
Si      -0.126839656  -0.126839663  -0.126839655
Si       0.126839656   0.126839663   0.126839655


     kinetic energy (Ekin) =     0.00011213 Ry
     temperature           =    11.80280712 K 
     Ekin + Etot (const)   =   -15.54395205 Ry

     Linear momentum :    0.0000000000    0.0000000000    0.0000000000

     Writing output data file pwscf.save

     second order wave-functions extrapolation
     NEW-OLD atomic charge density approx. for the potential

     total cpu time spent up to now is        5.6 secs

     per-process dynamical memory:     2.6 Mb

     Self-consistent Calculation

     iteration #  1     ecut=     8.00 Ry     beta=0.70
     Davidson diagonalization with overlap
     ethr =  1.00E-06,  avg # of iterations =  1.0

     Threshold (ethr) on eigenvalues was too large:
     Diagonalizing with lowered threshold

     Davidson diagonalization with overlap
     ethr =  8.45E-10,  avg # of iterations =  1.0

     total cpu time spent up to now is        5.6 secs

     total energy              =     -15.54413224 Ry
     Harris-Foulkes estimate   =     -15.54413223 Ry
     estimated scf accuracy    <       0.00000007 Ry

     iteration #  2     ecut=     8.00 Ry     beta=0.70
     Davidson diagonalization with overlap
     ethr =  8.59E-10,  avg # of iterations =  1.0

     total cpu time spent up to now is        5.6 secs

     End of self-consistent calculation

          k = 0.0000 0.0000 0.0000 (   113 PWs)   bands (ev):

    -5.2229   6.6070   6.6070   6.9112

          k = 1.0000 0.0000 0.0000 (   108 PWs)   bands (ev):

    -1.0828  -0.9669   3.5673   3.6384

          k = 0.0000 1.0000 0.0000 (   108 PWs)   bands (ev):

    -1.0828  -0.9669   3.5673   3.6384

          k = 0.0000 0.0000 1.0000 (   108 PWs)   bands (ev):

    -1.0828  -0.9669   3.5673   3.6384

     highest occupied level (ev):     6.9112

!    total energy              =     -15.54413225 Ry
     Harris-Foulkes estimate   =     -15.54413224 Ry
     estimated scf accuracy    <          5.5E-09 Ry

     convergence has been achieved in   2 iterations

     Forces acting on atoms (Ry/au):

     atom    1 type  1   force =     0.01277577    0.01277583    0.01277576
     atom    2 type  1   force =    -0.01277577   -0.01277583   -0.01277576

     Total force =     0.031294     Total SCF correction =     0.000010

     Entering Dynamics:    iteration =    95
                           time      =   0.0919 pico-seconds


ATOMIC_POSITIONS (alat)
Si      -0.126734733  -0.126734741  -0.126734730
Si       0.126734733   0.126734741   0.126734730


     kinetic energy (Ekin) =     0.00018001 Ry
     temperature           =    18.94788835 K 
     Ekin + Etot (const)   =   -15.54395223 Ry

     Linear momentum :    0.0000000000    0.0000000000    0.0000000000

     Writing output data file pwscf.save

     second order wave-functions extrapolation
     NEW-OLD atomic charge density approx. for the potential

     total cpu time spent up to now is        5.6 secs

     per-process dynamical memory:     2.6 Mb

     Self-consistent Calculation

     iteration #  1     ecut=     8.00 Ry     beta=0.70
     Davidson diagonalization with overlap
     ethr =  1.00E-06,  avg # of iterations =  1.0

     Threshold (ethr) on eigenvalues was too large:
     Diagonalizing with lowered threshold

     Davidson diagonalization with overlap
     ethr =  1.28E-09,  avg # of iterations =  1.0

     total cpu time spent up to now is        5.6 secs

     total energy              =     -15.54421189 Ry
     Harris-Foulkes estimate   =     -15.54421186 Ry
     estimated scf accuracy    <       0.00000010 Ry

     iteration #  2     ecut=     8.00 Ry     beta=0.70
     Davidson diagonalization with overlap
     ethr =  1.30E-09,  avg # of iterations =  1.0

     total cpu time spent up to now is        5.6 secs

     End of self-consistent calculation

          k = 0.0000 0.0000 0.0000 (   113 PWs)   bands (ev):

    -5.2227   6.6127   6.6127   6.8995

          k = 1.0000 0.0000 0.0000 (   108 PWs)   bands (ev):

    -1.0794  -0.9698   3.5694   3.6362

          k = 0.0000 1.0000 0.0000 (   108 PWs)   bands (ev):

    -1.0794  -0.9698   3.5694   3.6362

          k = 0.0000 0.0000 1.0000 (   108 PWs)   bands (ev):

    -1.0794  -0.9698   3.5694   3.6362

     highest occupied level (ev):     6.8995

!    total energy              =     -15.54421189 Ry
     Harris-Foulkes estimate   =     -15.54421189 Ry
     estimated scf accuracy    <          8.3E-09 Ry

     convergence has been achieved in   2 iterations

     Forces acting on atoms (Ry/au):

     atom    1 type  1   force =     0.01207356    0.01207363    0.01207354
     atom    2 type  1   force =    -0.01207356   -0.01207363   -0.01207354

     Total force =     0.029574     Total SCF correction =     0.000013

     Entering Dynamics:    iteration =    96
                           time      =   0.0929 pico-seconds


ATOMIC_POSITIONS (alat)
Si      -0.126611277  -0.126611287  -0.126611274
Si       0.126611277   0.126611287   0.126611274


     kinetic energy (Ekin) =     0.00025944 Ry
     temperature           =    27.30768245 K 
     Ekin + Etot (const)   =   -15.54395246 Ry

     Linear momentum :    0.0000000000    0.0000000000    0.0000000000

     Writing output data file pwscf.save

     second order wave-functions extrapolation
     NEW-OLD atomic charge density approx. for the potential

     total cpu time spent up to now is        5.6 secs

     per-process dynamical memory:     2.6 Mb

     Self-consistent Calculation

     iteration #  1     ecut=     8.00 Ry     beta=0.70
     Davidson diagonalization with overlap
     ethr =  1.00E-06,  avg # of iterations =  1.8

     Threshold (ethr) on eigenvalues was too large:
     Diagonalizing with lowered threshold

     Davidson diagonalization with overlap
     ethr =  1.78E-09,  avg # of iterations =  1.0

     total cpu time spent up to now is        5.6 secs

     total energy              =     -15.54429982 Ry
     Harris-Foulkes estimate   =     -15.54429979 Ry
     estimated scf accuracy    <       0.00000014 Ry

     iteration #  2     ecut=     8.00 Ry     beta=0.70
     Davidson diagonalization with overlap
     ethr =  1.80E-09,  avg # of iterations =  1.0

     total cpu time spent up to now is        5.7 secs

     total energy              =     -15.54429983 Ry
     Harris-Foulkes estimate   =     -15.54429982 Ry
     estimated scf accuracy    <       0.00000001 Ry

     iteration #  3     ecut=     8.00 Ry     beta=0.70
     Davidson diagonalization with overlap
     ethr =  1.43E-10,  avg # of iterations =  1.0

     total cpu time spent up to now is        5.7 secs

     End of self-consistent calculation

          k = 0.0000 0.0000 0.0000 (   113 PWs)   bands (ev):

    -5.2225   6.6193   6.6193   6.8858

          k = 1.0000 0.0000 0.0000 (   108 PWs)   bands (ev):

    -1.0754  -0.9733   3.5717   3.6336

          k = 0.0000 1.0000 0.0000 (   108 PWs)   bands (ev):

    -1.0754  -0.9733   3.5717   3.6336

          k = 0.0000 0.0000 1.0000 (   108 PWs)   bands (ev):

    -1.0754  -0.9733   3.5717   3.6336

     highest occupied level (ev):     6.8858

!    total energy              =     -15.54429983 Ry
     Harris-Foulkes estimate   =     -15.54429983 Ry
     estimated scf accuracy    <          3.5E-11 Ry

     convergence has been achieved in   3 iterations

     Forces acting on atoms (Ry/au):

     atom    1 type  1   force =     0.01124630    0.01124638    0.01124628
     atom    2 type  1   force =    -0.01124630   -0.01124638   -0.01124628

     Total force =     0.027548     Total SCF correction =     0.000000

     Entering Dynamics:    iteration =    97
                           time      =   0.0939 pico-seconds


ATOMIC_POSITIONS (alat)
Si      -0.126470559  -0.126470570  -0.126470555
Si       0.126470559   0.126470570   0.126470555


     kinetic energy (Ekin) =     0.00034713 Ry
     temperature           =    36.53858573 K 
     Ekin + Etot (const)   =   -15.54395269 Ry

     Linear momentum :    0.0000000000    0.0000000000    0.0000000000

     Writing output data file pwscf.save

     second order wave-functions extrapolation
     NEW-OLD atomic charge density approx. for the potential

     total cpu time spent up to now is        5.7 secs

     per-process dynamical memory:     2.6 Mb

     Self-consistent Calculation

     iteration #  1     ecut=     8.00 Ry     beta=0.70
     Davidson diagonalization with overlap
     ethr =  1.00E-06,  avg # of iterations =  1.8

     Threshold (ethr) on eigenvalues was too large:
     Diagonalizing with lowered threshold

     Davidson diagonalization with overlap
     ethr =  2.33E-09,  avg # of iterations =  1.0

     total cpu time spent up to now is        5.7 secs

     total energy              =     -15.54439240 Ry
     Harris-Foulkes estimate   =     -15.54439236 Ry
     estimated scf accuracy    <       0.00000019 Ry

     iteration #  2     ecut=     8.00 Ry     beta=0.70
     Davidson diagonalization with overlap
     ethr =  2.38E-09,  avg # of iterations =  1.0

     total cpu time spent up to now is        5.7 secs

     total energy              =     -15.54439241 Ry
     Harris-Foulkes estimate   =     -15.54439240 Ry
     estimated scf accuracy    <       0.00000002 Ry

     iteration #  3     ecut=     8.00 Ry     beta=0.70
     Davidson diagonalization with overlap
     ethr =  1.91E-10,  avg # of iterations =  1.0

     total cpu time spent up to now is        5.7 secs

     End of self-consistent calculation

          k = 0.0000 0.0000 0.0000 (   113 PWs)   bands (ev):

    -5.2223   6.6270   6.6270   6.8702

          k = 1.0000 0.0000 0.0000 (   108 PWs)   bands (ev):

    -1.0708  -0.9774   3.5744   3.6307

          k = 0.0000 1.0000 0.0000 (   108 PWs)   bands (ev):

    -1.0708  -0.9774   3.5744   3.6307

          k = 0.0000 0.0000 1.0000 (   108 PWs)   bands (ev):

    -1.0708  -0.9774   3.5744   3.6307

     highest occupied level (ev):     6.8702

!    total energy              =     -15.54439241 Ry
     Harris-Foulkes estimate   =     -15.54439241 Ry
     estimated scf accuracy    <          3.6E-11 Ry

     convergence has been achieved in   3 iterations

     Forces acting on atoms (Ry/au):

     atom    1 type  1   force =     0.01029512    0.01029520    0.01029509
     atom    2 type  1   force =    -0.01029512   -0.01029520   -0.01029509

     Total force =     0.025218     Total SCF correction =     0.000001

     Entering Dynamics:    iteration =    98
                           time      =   0.0948 pico-seconds


ATOMIC_POSITIONS (alat)
Si      -0.126314038  -0.126314051  -0.126314033
Si       0.126314038   0.126314051   0.126314033


     kinetic energy (Ekin) =     0.00043947 Ry
     temperature           =    46.25759319 K 
     Ekin + Etot (const)   =   -15.54395294 Ry

     Linear momentum :    0.0000000000    0.0000000000    0.0000000000

     Writing output data file pwscf.save

     second order wave-functions extrapolation
     NEW-OLD atomic charge density approx. for the potential

     total cpu time spent up to now is        5.7 secs

     per-process dynamical memory:     2.6 Mb

     Self-consistent Calculation

     iteration #  1     ecut=     8.00 Ry     beta=0.70
     Davidson diagonalization with overlap
     ethr =  1.00E-06,  avg # of iterations =  1.8

     Threshold (ethr) on eigenvalues was too large:
     Diagonalizing with lowered threshold

     Davidson diagonalization with overlap
     ethr =  2.91E-09,  avg # of iterations =  1.0

     total cpu time spent up to now is        5.7 secs

     total energy              =     -15.54448574 Ry
     Harris-Foulkes estimate   =     -15.54448568 Ry
     estimated scf accuracy    <       0.00000024 Ry

     iteration #  2     ecut=     8.00 Ry     beta=0.70
     Davidson diagonalization with overlap
     ethr =  2.96E-09,  avg # of iterations =  1.0

     total cpu time spent up to now is        5.8 secs

     total energy              =     -15.54448575 Ry
     Harris-Foulkes estimate   =     -15.54448574 Ry
     estimated scf accuracy    <       0.00000002 Ry

     iteration #  3     ecut=     8.00 Ry     beta=0.70
     Davidson diagonalization with overlap
     ethr =  2.35E-10,  avg # of iterations =  1.0

     total cpu time spent up to now is        5.8 secs

     End of self-consistent calculation

          k = 0.0000 0.0000 0.0000 (   113 PWs)   bands (ev):

    -5.2221   6.6355   6.6355   6.8528

          k = 1.0000 0.0000 0.0000 (   108 PWs)   bands (ev):

    -1.0658  -0.9820   3.5774   3.6275

          k = 0.0000 1.0000 0.0000 (   108 PWs)   bands (ev):

    -1.0658  -0.9820   3.5774   3.6275

          k = 0.0000 0.0000 1.0000 (   108 PWs)   bands (ev):

    -1.0658  -0.9820   3.5774   3.6275

     highest occupied level (ev):     6.8528

!    total energy              =     -15.54448575 Ry
     Harris-Foulkes estimate   =     -15.54448575 Ry
     estimated scf accuracy    <          4.8E-11 Ry

     convergence has been achieved in   3 iterations

     Forces acting on atoms (Ry/au):

     atom    1 type  1   force =     0.00923011    0.00923021    0.00923008
     atom    2 type  1   force =    -0.00923011   -0.00923021   -0.00923008

     Total force =     0.022609     Total SCF correction =     0.000001

     Entering Dynamics:    iteration =    99
                           time      =   0.0958 pico-seconds


ATOMIC_POSITIONS (alat)
Si      -0.126143350  -0.126143364  -0.126143344
Si       0.126143350   0.126143364   0.126143344


     kinetic energy (Ekin) =     0.00053256 Ry
     temperature           =    56.05605355 K 
     Ekin + Etot (const)   =   -15.54395319 Ry

     Linear momentum :    0.0000000000    0.0000000000    0.0000000000

     Writing output data file pwscf.save

     second order wave-functions extrapolation
     NEW-OLD atomic charge density approx. for the potential

     total cpu time spent up to now is        5.8 secs

     per-process dynamical memory:     2.6 Mb

     Self-consistent Calculation

     iteration #  1     ecut=     8.00 Ry     beta=0.70
     Davidson diagonalization with overlap
     ethr =  1.00E-06,  avg # of iterations =  1.8

     Threshold (ethr) on eigenvalues was too large:
     Diagonalizing with lowered threshold

     Davidson diagonalization with overlap
     ethr =  3.50E-09,  avg # of iterations =  1.0

     total cpu time spent up to now is        5.8 secs

     total energy              =     -15.54457588 Ry
     Harris-Foulkes estimate   =     -15.54457582 Ry
     estimated scf accuracy    <       0.00000028 Ry

     iteration #  2     ecut=     8.00 Ry     beta=0.70
     Davidson diagonalization with overlap
     ethr =  3.54E-09,  avg # of iterations =  1.0

     total cpu time spent up to now is        5.8 secs

     total energy              =     -15.54457589 Ry
     Harris-Foulkes estimate   =     -15.54457588 Ry
     estimated scf accuracy    <       0.00000002 Ry

     iteration #  3     ecut=     8.00 Ry     beta=0.70
     Davidson diagonalization with overlap
     ethr =  2.79E-10,  avg # of iterations =  1.0

     total cpu time spent up to now is        5.8 secs

     End of self-consistent calculation

          k = 0.0000 0.0000 0.0000 (   113 PWs)   bands (ev):

    -5.2219   6.6447   6.6447   6.8338

          k = 1.0000 0.0000 0.0000 (   108 PWs)   bands (ev):

    -1.0602  -0.9870   3.5807   3.6241

          k = 0.0000 1.0000 0.0000 (   108 PWs)   bands (ev):

    -1.0602  -0.9870   3.5807   3.6241

          k = 0.0000 0.0000 1.0000 (   108 PWs)   bands (ev):

    -1.0602  -0.9870   3.5807   3.6241

     highest occupied level (ev):     6.8338

!    total energy              =     -15.54457589 Ry
     Harris-Foulkes estimate   =     -15.54457589 Ry
     estimated scf accuracy    <          6.5E-11 Ry

     convergence has been achieved in   3 iterations

     Forces acting on atoms (Ry/au):

     atom    1 type  1   force =     0.00806043    0.00806053    0.00806039
     atom    2 type  1   force =    -0.00806043   -0.00806053   -0.00806039

     Total force =     0.019744     Total SCF correction =     0.000000

     Entering Dynamics:    iteration =   100
                           time      =   0.0968 pico-seconds


ATOMIC_POSITIONS (alat)
Si      -0.125960289  -0.125960304  -0.125960283
Si       0.125960289   0.125960304   0.125960283


     kinetic energy (Ekin) =     0.00062245 Ry
     temperature           =    65.51830895 K 
     Ekin + Etot (const)   =   -15.54395344 Ry

     Linear momentum :    0.0000000000    0.0000000000    0.0000000000

     The maximum number of steps has been reached.

     End of molecular dynamics calculation

     diffusion coefficients :
     atom     1   D =       0.00000013 cm^2/s
     atom     2   D =       0.00000013 cm^2/s

     < D > =       0.00000013 cm^2/s

     Writing output data file pwscf.save
 
     init_run     :      0.01s CPU      0.01s WALL (       1 calls)
     electrons    :      1.50s CPU      2.07s WALL (     100 calls)
     update_pot   :      0.22s CPU      0.57s WALL (      99 calls)
     forces       :      0.06s CPU      0.07s WALL (     100 calls)

     Called by init_run:
     wfcinit      :      0.00s CPU      0.00s WALL (       1 calls)
     potinit      :      0.00s CPU      0.00s WALL (       1 calls)

     Called by electrons:
     c_bands      :      1.06s CPU      1.13s WALL (     355 calls)
     sum_band     :      0.21s CPU      0.23s WALL (     355 calls)
     v_of_rho     :      0.07s CPU      0.07s WALL (     356 calls)
     mix_rho      :      0.02s CPU      0.02s WALL (     355 calls)

     Called by c_bands:
     init_us_2    :      0.04s CPU      0.05s WALL (    3244 calls)
     cegterg      :      0.97s CPU      1.02s WALL (    1420 calls)

     Called by sum_band:

     Called by *egterg:
     h_psi        :      0.70s CPU      0.75s WALL (    3133 calls)
     g_psi        :      0.01s CPU      0.01s WALL (    1709 calls)
     cdiaghg      :      0.15s CPU      0.15s WALL (    2337 calls)

     Called by h_psi:
     h_psi:pot    :      0.69s CPU      0.75s WALL (    3133 calls)
     h_psi:calbec :      0.05s CPU      0.05s WALL (    3133 calls)
     add_vuspsi   :      0.03s CPU      0.02s WALL (    3133 calls)

     General routines
     calbec       :      0.07s CPU      0.07s WALL (    5125 calls)
     fft          :      0.05s CPU      0.07s WALL (    1821 calls)
     fftw         :      0.69s CPU      0.74s WALL (   29586 calls)
     davcio       :      0.04s CPU      0.05s WALL (    7608 calls)
 
     Parallel routines
     fft_scatter  :      0.17s CPU      0.20s WALL (   31407 calls)
 
     PWSCF        :     4.48s CPU         5.84s WALL

 
   This run was terminated on:  16:10:39  18Aug2016            

=------------------------------------------------------------------------------=
   JOB DONE.
=------------------------------------------------------------------------------=
