
     Program PWSCF v.5.4.0 (svn rev. 12590M) starts on 21Jul2016 at 15:34: 2 

     This program is part of the open-source Quantum ESPRESSO suite
     for quantum simulation of materials; please cite
         "P. Giannozzi et al., J. Phys.:Condens. Matter 21 395502 (2009);
          URL http://www.quantum-espresso.org", 
     in publications or presentations arising from this work. More details at
     http://www.quantum-espresso.org/quote
 
           HOST :    x86_64-pc-linux-gnu
           ARCH :    x86_64
             CC :    icc
            CPP :    cpp
            F90 :    gfortran
            F77 :    gfortran
         DFLAGS :    -D__GFORTRAN -D__STD_F95 -D__DFTI -D__MPI -D__PARA -D__HDF5
      BLAS LIBS :    -lmkl_gf_lp64  -lmkl_sequential -lmkl_core
    LAPACK LIBS :    
       FFT LIBS :    
      MASS LIBS :    

     Parallel version (MPI), running on     2 processors
     R & G space division:  proc/nbgrp/npool/nimage =       2
     Waiting for input...
     Reading input from standard input
     Message from routine read_cards :
     DEPRECATED: no units specified in ATOMIC_POSITIONS card
     Message from routine read_cards :
     ATOMIC_POSITIONS: units set to alat

     Current dimensions of program PWSCF are:
     Max number of different atomic species (ntypx) = 10
     Max number of k-points (npk) =  40000
     Max angular momentum in pseudopotentials (lmaxx) =  3

     Subspace diagonalization in iterative solution of the eigenvalue problem:
     a serial algorithm will be used

 
     Parallelization info
     --------------------
     sticks:   dense  smooth     PW     G-vecs:    dense   smooth      PW
     Min          60      60     15                  434      434      56
     Max          61      61     16                  435      435      57
     Sum         121     121     31                  869      869     113
 


     bravais-lattice index     =            2
     lattice parameter (alat)  =      10.1800  a.u.
     unit-cell volume          =     263.7445 (a.u.)^3
     number of atoms/cell      =            2
     number of atomic types    =            1
     number of electrons       =         8.00
     number of Kohn-Sham states=            4
     kinetic-energy cutoff     =       8.0000  Ry
     charge density cutoff     =      32.0000  Ry
     convergence threshold     =      1.0E-08
     mixing beta               =       0.7000
     number of iterations used =            8  plain     mixing
     Exchange-correlation      =  SLA  PZ   NOGX NOGC ( 1  1  0  0 0 0)
     nstep                     =          100


     celldm(1)=  10.180000  celldm(2)=   0.000000  celldm(3)=   0.000000
     celldm(4)=   0.000000  celldm(5)=   0.000000  celldm(6)=   0.000000

     crystal axes: (cart. coord. in units of alat)
               a(1) = (  -0.500000   0.000000   0.500000 )  
               a(2) = (   0.000000   0.500000   0.500000 )  
               a(3) = (  -0.500000   0.500000   0.000000 )  

     reciprocal axes: (cart. coord. in units 2 pi/alat)
               b(1) = ( -1.000000 -1.000000  1.000000 )  
               b(2) = (  1.000000  1.000000  1.000000 )  
               b(3) = ( -1.000000  1.000000 -1.000000 )  


     PseudoPot. # 1 for Si read from file:
     /home/nvarini/espresso_hdf5/espresso/pseudo/Si.pz-vbc.UPF
     MD5 check sum: 6dfa03ddd5817404712e03e4d12deb78
     Pseudo is Norm-conserving, Zval =  4.0
     Generated by new atomic code, or converted to UPF format
     Using radial grid of  431 points,  2 beta functions with: 
                l(1) =   0
                l(2) =   1

     atomic species   valence    mass     pseudopotential
        Si             4.00    28.08600     Si( 1.00)

     No symmetry found



   Cartesian axes

     site n.     atom                  positions (alat units)
         1           Si  tau(   1) = (  -0.1230000  -0.1230000  -0.1230000  )
         2           Si  tau(   2) = (   0.1230000   0.1230000   0.1230000  )

     number of k points=     1
                       cart. coord. in units 2pi/alat
        k(    1) = (   0.0000000   0.0000000   0.0000000), wk =   2.0000000

     Dense  grid:      869 G-vectors     FFT dimensions: (  15,  15,  15)

     Largest allocated arrays     est. size (Mb)     dimensions
        Kohn-Sham Wavefunctions         0.00 Mb     (      57,    4)
        NL pseudopotentials             0.01 Mb     (      57,    8)
        Each V/rho on FFT grid          0.03 Mb     (    1800)
        Each G-vector array             0.00 Mb     (     435)
        G-vector shells                 0.00 Mb     (      31)
     Largest temporary arrays     est. size (Mb)     dimensions
        Auxiliary wavefunctions         0.01 Mb     (      57,   16)
        Each subspace H/S matrix        0.00 Mb     (      16,   16)
        Each <psi_i|beta_j> matrix      0.00 Mb     (       8,    4)
        Arrays for rho mixing           0.22 Mb     (    1800,    8)

     Initial potential from superposition of free atoms

     starting charge    7.99901, renormalised to    8.00000
     Starting wfc are    8 randomized atomic wfcs

     total cpu time spent up to now is        0.0 secs

     per-process dynamical memory:     1.4 Mb

     Self-consistent Calculation

     iteration #  1     ecut=     8.00 Ry     beta=0.70
     Davidson diagonalization with overlap
     ethr =  1.00E-02,  avg # of iterations =  2.0

     total cpu time spent up to now is        0.0 secs

     total energy              =     -14.43208594 Ry
     Harris-Foulkes estimate   =     -14.55434749 Ry
     estimated scf accuracy    <       0.32482571 Ry

     iteration #  2     ecut=     8.00 Ry     beta=0.70
     Davidson diagonalization with overlap
     ethr =  4.06E-03,  avg # of iterations =  1.0

     total cpu time spent up to now is        0.0 secs

     total energy              =     -14.44689076 Ry
     Harris-Foulkes estimate   =     -14.44915929 Ry
     estimated scf accuracy    <       0.01104010 Ry

     iteration #  3     ecut=     8.00 Ry     beta=0.70
     Davidson diagonalization with overlap
     ethr =  1.38E-04,  avg # of iterations =  1.0

     total cpu time spent up to now is        0.0 secs

     total energy              =     -14.44789426 Ry
     Harris-Foulkes estimate   =     -14.44785851 Ry
     estimated scf accuracy    <       0.00018609 Ry

     iteration #  4     ecut=     8.00 Ry     beta=0.70
     Davidson diagonalization with overlap
     ethr =  2.33E-06,  avg # of iterations =  2.0

     total cpu time spent up to now is        0.0 secs

     total energy              =     -14.44793461 Ry
     Harris-Foulkes estimate   =     -14.44793422 Ry
     estimated scf accuracy    <       0.00000606 Ry

     iteration #  5     ecut=     8.00 Ry     beta=0.70
     Davidson diagonalization with overlap
     ethr =  7.58E-08,  avg # of iterations =  4.0

     total cpu time spent up to now is        0.0 secs

     total energy              =     -14.44793706 Ry
     Harris-Foulkes estimate   =     -14.44793728 Ry
     estimated scf accuracy    <       0.00000076 Ry

     iteration #  6     ecut=     8.00 Ry     beta=0.70
     Davidson diagonalization with overlap
     ethr =  9.48E-09,  avg # of iterations =  4.0

     total cpu time spent up to now is        0.0 secs

     total energy              =     -14.44793730 Ry
     Harris-Foulkes estimate   =     -14.44793741 Ry
     estimated scf accuracy    <       0.00000037 Ry

     iteration #  7     ecut=     8.00 Ry     beta=0.70
     Davidson diagonalization with overlap
     ethr =  4.63E-09,  avg # of iterations =  1.0

     total cpu time spent up to now is        0.0 secs

     total energy              =     -14.44793730 Ry
     Harris-Foulkes estimate   =     -14.44793732 Ry
     estimated scf accuracy    <       0.00000006 Ry

     iteration #  8     ecut=     8.00 Ry     beta=0.70
     Davidson diagonalization with overlap
     ethr =  7.95E-10,  avg # of iterations =  3.0

     total cpu time spent up to now is        0.0 secs

     total energy              =     -14.44793733 Ry
     Harris-Foulkes estimate   =     -14.44793735 Ry
     estimated scf accuracy    <       0.00000006 Ry

     iteration #  9     ecut=     8.00 Ry     beta=0.70
     Davidson diagonalization with overlap
     ethr =  7.91E-10,  avg # of iterations =  1.0

     total cpu time spent up to now is        0.0 secs

     total energy              =     -14.44793733 Ry
     Harris-Foulkes estimate   =     -14.44793734 Ry
     estimated scf accuracy    <       0.00000002 Ry

     iteration # 10     ecut=     8.00 Ry     beta=0.70
     Davidson diagonalization with overlap
     ethr =  2.86E-10,  avg # of iterations =  3.0

     total cpu time spent up to now is        0.0 secs

     total energy              =     -14.44793734 Ry
     Harris-Foulkes estimate   =     -14.44793734 Ry
     estimated scf accuracy    <       0.00000001 Ry

     iteration # 11     ecut=     8.00 Ry     beta=0.70
     Davidson diagonalization with overlap
     ethr =  1.78E-10,  avg # of iterations =  1.0

     total cpu time spent up to now is        0.0 secs

     End of self-consistent calculation

          k = 0.0000 0.0000 0.0000 (   113 PWs)   bands (ev):

    -4.7639   7.1610   7.5134   7.5134

     highest occupied level (ev):     7.5134

!    total energy              =     -14.44793733 Ry
     Harris-Foulkes estimate   =     -14.44793734 Ry
     estimated scf accuracy    <          4.5E-09 Ry

     convergence has been achieved in  11 iterations

     Forces acting on atoms (Ry/au):

     atom    1 type  1   force =    -0.02329827   -0.02329825   -0.02329793
     atom    2 type  1   force =     0.02329827    0.02329825    0.02329793

     Total force =     0.057069     Total SCF correction =     0.000001

     Molecular Dynamics Calculation
     mass Si               =    28.09
     Time step             =    20.00 a.u.,  0.9676 femto-seconds

     Entering Dynamics:    iteration =     1
                           time      =   0.0010 pico-seconds


ATOMIC_POSITIONS (alat)
Si      -0.123017881  -0.123017881  -0.123017880
Si       0.123017881   0.123017881   0.123017880


     kinetic energy (Ekin) =     0.00000000 Ry
     temperature           =     0.00000000 K 
     Ekin + Etot (const)   =   -14.44793733 Ry

     Linear momentum :    0.0000000000    0.0000000000    0.0000000000

     Writing output data file pwscf.save
     NEW-OLD atomic charge density approx. for the potential

     total cpu time spent up to now is        0.1 secs

     per-process dynamical memory:     2.0 Mb

     Self-consistent Calculation

     iteration #  1     ecut=     8.00 Ry     beta=0.70
     Davidson diagonalization with overlap
     ethr =  1.00E-06,  avg # of iterations =  1.0

     Threshold (ethr) on eigenvalues was too large:
     Diagonalizing with lowered threshold

     Davidson diagonalization with overlap
     ethr =  1.54E-10,  avg # of iterations =  4.0

     total cpu time spent up to now is        0.1 secs

     total energy              =     -14.44796266 Ry
     Harris-Foulkes estimate   =     -14.44796267 Ry
     estimated scf accuracy    <       0.00000003 Ry

     iteration #  2     ecut=     8.00 Ry     beta=0.70
     Davidson diagonalization with overlap
     ethr =  3.21E-10,  avg # of iterations =  3.0

     total cpu time spent up to now is        0.1 secs

     total energy              =     -14.44796266 Ry
     Harris-Foulkes estimate   =     -14.44796267 Ry
     estimated scf accuracy    <       0.00000001 Ry

     iteration #  3     ecut=     8.00 Ry     beta=0.70
     Davidson diagonalization with overlap
     ethr =  1.61E-10,  avg # of iterations =  3.0

     total cpu time spent up to now is        0.1 secs

     End of self-consistent calculation

          k = 0.0000 0.0000 0.0000 (   113 PWs)   bands (ev):

    -4.7639   7.1631   7.5123   7.5123

     highest occupied level (ev):     7.5123

!    total energy              =     -14.44796266 Ry
     Harris-Foulkes estimate   =     -14.44796266 Ry
     estimated scf accuracy    <          1.1E-09 Ry

     convergence has been achieved in   3 iterations

     Forces acting on atoms (Ry/au):

     atom    1 type  1   force =    -0.02308304   -0.02308268   -0.02308269
     atom    2 type  1   force =     0.02308304    0.02308268    0.02308269

     Total force =     0.056541     Total SCF correction =     0.000003

     Entering Dynamics:    iteration =     2
                           time      =   0.0019 pico-seconds


ATOMIC_POSITIONS (alat)
Si      -0.123071193  -0.123071192  -0.123071192
Si       0.123071193   0.123071192   0.123071192


     kinetic energy (Ekin) =     0.00002521 Ry
     temperature           =     2.65360716 K 
     Ekin + Etot (const)   =   -14.44793745 Ry

     Linear momentum :    0.0000000000    0.0000000000    0.0000000000

     Writing output data file pwscf.save

     first order wave-functions extrapolation
     NEW-OLD atomic charge density approx. for the potential

     total cpu time spent up to now is        0.1 secs

     per-process dynamical memory:     2.6 Mb

     Self-consistent Calculation

     iteration #  1     ecut=     8.00 Ry     beta=0.70
     Davidson diagonalization with overlap
     ethr =  1.00E-06,  avg # of iterations =  2.0

     Threshold (ethr) on eigenvalues was too large:
     Diagonalizing with lowered threshold

     Davidson diagonalization with overlap
     ethr =  1.10E-09,  avg # of iterations =  2.0

     total cpu time spent up to now is        0.1 secs

     total energy              =     -14.44803678 Ry
     Harris-Foulkes estimate   =     -14.44803678 Ry
     estimated scf accuracy    <       0.00000008 Ry

     iteration #  2     ecut=     8.00 Ry     beta=0.70
     Davidson diagonalization with overlap
     ethr =  9.94E-10,  avg # of iterations =  2.0

     total cpu time spent up to now is        0.1 secs

     End of self-consistent calculation

          k = 0.0000 0.0000 0.0000 (   113 PWs)   bands (ev):

    -4.7637   7.1694   7.5091   7.5091

     highest occupied level (ev):     7.5091

!    total energy              =     -14.44803679 Ry
     Harris-Foulkes estimate   =     -14.44803679 Ry
     estimated scf accuracy    <          6.6E-09 Ry

     convergence has been achieved in   2 iterations

     Forces acting on atoms (Ry/au):

     atom    1 type  1   force =    -0.02244074   -0.02244032   -0.02244034
     atom    2 type  1   force =     0.02244074    0.02244032    0.02244034

     Total force =     0.054968     Total SCF correction =     0.000015

     Entering Dynamics:    iteration =     3
                           time      =   0.0029 pico-seconds


ATOMIC_POSITIONS (alat)
Si      -0.123158950  -0.123158948  -0.123158947
Si       0.123158950   0.123158948   0.123158947


     kinetic energy (Ekin) =     0.00009899 Ry
     temperature           =    10.41905239 K 
     Ekin + Etot (const)   =   -14.44793781 Ry

     Linear momentum :    0.0000000000    0.0000000000    0.0000000000

     Writing output data file pwscf.save

     second order wave-functions extrapolation
     NEW-OLD atomic charge density approx. for the potential

     total cpu time spent up to now is        0.1 secs

     per-process dynamical memory:     2.6 Mb

     Self-consistent Calculation

     iteration #  1     ecut=     8.00 Ry     beta=0.70
     Davidson diagonalization with overlap
     ethr =  1.00E-06,  avg # of iterations =  1.0

     Threshold (ethr) on eigenvalues was too large:
     Diagonalizing with lowered threshold

     Davidson diagonalization with overlap
     ethr =  2.57E-09,  avg # of iterations =  1.0

     total cpu time spent up to now is        0.1 secs

     total energy              =     -14.44815427 Ry
     Harris-Foulkes estimate   =     -14.44815426 Ry
     estimated scf accuracy    <       0.00000021 Ry

     iteration #  2     ecut=     8.00 Ry     beta=0.70
     Davidson diagonalization with overlap
     ethr =  2.63E-09,  avg # of iterations =  2.0

     total cpu time spent up to now is        0.1 secs

     total energy              =     -14.44815429 Ry
     Harris-Foulkes estimate   =     -14.44815428 Ry
     estimated scf accuracy    <       0.00000002 Ry

     iteration #  3     ecut=     8.00 Ry     beta=0.70
     Davidson diagonalization with overlap
     ethr =  2.06E-10,  avg # of iterations =  1.0

     total cpu time spent up to now is        0.1 secs

     End of self-consistent calculation

          k = 0.0000 0.0000 0.0000 (   113 PWs)   bands (ev):

    -4.7635   7.1795   7.5039   7.5039

     highest occupied level (ev):     7.5039

!    total energy              =     -14.44815429 Ry
     Harris-Foulkes estimate   =     -14.44815429 Ry
     estimated scf accuracy    <          4.0E-10 Ry

     convergence has been achieved in   3 iterations

     Forces acting on atoms (Ry/au):

     atom    1 type  1   force =    -0.02139586   -0.02139525   -0.02139525
     atom    2 type  1   force =     0.02139586    0.02139525    0.02139525

     Total force =     0.052408     Total SCF correction =     0.000005

     Entering Dynamics:    iteration =     4
                           time      =   0.0039 pico-seconds


ATOMIC_POSITIONS (alat)
Si      -0.123279548  -0.123279544  -0.123279544
Si       0.123279548   0.123279544   0.123279544


     kinetic energy (Ekin) =     0.00021593 Ry
     temperature           =    22.72866255 K 
     Ekin + Etot (const)   =   -14.44793836 Ry

     Linear momentum :    0.0000000000    0.0000000000    0.0000000000

     Writing output data file pwscf.save

     second order wave-functions extrapolation
     NEW-OLD atomic charge density approx. for the potential

     total cpu time spent up to now is        0.2 secs

     per-process dynamical memory:     2.6 Mb

     Self-consistent Calculation

     iteration #  1     ecut=     8.00 Ry     beta=0.70
     Davidson diagonalization with overlap
     ethr =  1.00E-06,  avg # of iterations =  1.0

     Threshold (ethr) on eigenvalues was too large:
     Diagonalizing with lowered threshold

     Davidson diagonalization with overlap
     ethr =  4.85E-09,  avg # of iterations =  1.0

     total cpu time spent up to now is        0.2 secs

     total energy              =     -14.44830657 Ry
     Harris-Foulkes estimate   =     -14.44830655 Ry
     estimated scf accuracy    <       0.00000040 Ry

     iteration #  2     ecut=     8.00 Ry     beta=0.70
     Davidson diagonalization with overlap
     ethr =  4.95E-09,  avg # of iterations =  2.0

     total cpu time spent up to now is        0.2 secs

     total energy              =     -14.44830661 Ry
     Harris-Foulkes estimate   =     -14.44830660 Ry
     estimated scf accuracy    <       0.00000003 Ry

     iteration #  3     ecut=     8.00 Ry     beta=0.70
     Davidson diagonalization with overlap
     ethr =  3.85E-10,  avg # of iterations =  1.0

     total cpu time spent up to now is        0.2 secs

     End of self-consistent calculation

          k = 0.0000 0.0000 0.0000 (   113 PWs)   bands (ev):

    -4.7632   7.1936   7.4967   7.4967

     highest occupied level (ev):     7.4967

!    total energy              =     -14.44830661 Ry
     Harris-Foulkes estimate   =     -14.44830661 Ry
     estimated scf accuracy    <          6.2E-10 Ry

     convergence has been achieved in   3 iterations

     Forces acting on atoms (Ry/au):

     atom    1 type  1   force =    -0.01995782   -0.01995790   -0.01995791
     atom    2 type  1   force =     0.01995782    0.01995790    0.01995791

     Total force =     0.048887     Total SCF correction =     0.000007

     Entering Dynamics:    iteration =     5
                           time      =   0.0048 pico-seconds


ATOMIC_POSITIONS (alat)
Si      -0.123430781  -0.123430775  -0.123430774
Si       0.123430781   0.123430775   0.123430774


     kinetic energy (Ekin) =     0.00036754 Ry
     temperature           =    38.68676074 K 
     Ekin + Etot (const)   =   -14.44793907 Ry

     Linear momentum :    0.0000000000    0.0000000000    0.0000000000

     Writing output data file pwscf.save

     second order wave-functions extrapolation
     NEW-OLD atomic charge density approx. for the potential

     total cpu time spent up to now is        0.2 secs

     per-process dynamical memory:     2.6 Mb

     Self-consistent Calculation

     iteration #  1     ecut=     8.00 Ry     beta=0.70
     Davidson diagonalization with overlap
     ethr =  1.00E-06,  avg # of iterations =  1.0

     Threshold (ethr) on eigenvalues was too large:
     Diagonalizing with lowered threshold

     Davidson diagonalization with overlap
     ethr =  7.63E-09,  avg # of iterations =  1.0

     total cpu time spent up to now is        0.2 secs

     total energy              =     -14.44848264 Ry
     Harris-Foulkes estimate   =     -14.44848261 Ry
     estimated scf accuracy    <       0.00000062 Ry

     iteration #  2     ecut=     8.00 Ry     beta=0.70
     Davidson diagonalization with overlap
     ethr =  7.79E-09,  avg # of iterations =  2.0

     total cpu time spent up to now is        0.2 secs

     total energy              =     -14.44848270 Ry
     Harris-Foulkes estimate   =     -14.44848268 Ry
     estimated scf accuracy    <       0.00000005 Ry

     iteration #  3     ecut=     8.00 Ry     beta=0.70
     Davidson diagonalization with overlap
     ethr =  6.05E-10,  avg # of iterations =  1.0

     total cpu time spent up to now is        0.2 secs

     End of self-consistent calculation

          k = 0.0000 0.0000 0.0000 (   113 PWs)   bands (ev):

    -4.7629   7.2112   7.4877   7.4877

     highest occupied level (ev):     7.4877

!    total energy              =     -14.44848270 Ry
     Harris-Foulkes estimate   =     -14.44848270 Ry
     estimated scf accuracy    <          9.9E-10 Ry

     convergence has been achieved in   3 iterations

     Forces acting on atoms (Ry/au):

     atom    1 type  1   force =    -0.01816300   -0.01816307   -0.01816309
     atom    2 type  1   force =     0.01816300    0.01816307    0.01816309

     Total force =     0.044490     Total SCF correction =     0.000009

     Entering Dynamics:    iteration =     6
                           time      =   0.0058 pico-seconds


ATOMIC_POSITIONS (alat)
Si      -0.123609893  -0.123609885  -0.123609884
Si       0.123609893   0.123609885   0.123609884


     kinetic energy (Ekin) =     0.00054281 Ry
     temperature           =    57.13469517 K 
     Ekin + Etot (const)   =   -14.44793990 Ry

     Linear momentum :    0.0000000000    0.0000000000    0.0000000000

     Writing output data file pwscf.save

     second order wave-functions extrapolation
     NEW-OLD atomic charge density approx. for the potential

     total cpu time spent up to now is        0.3 secs

     per-process dynamical memory:     2.6 Mb

     Self-consistent Calculation

     iteration #  1     ecut=     8.00 Ry     beta=0.70
     Davidson diagonalization with overlap
     ethr =  1.00E-06,  avg # of iterations =  1.0

     Threshold (ethr) on eigenvalues was too large:
     Diagonalizing with lowered threshold

     Davidson diagonalization with overlap
     ethr =  1.07E-08,  avg # of iterations =  1.0

     total cpu time spent up to now is        0.3 secs

     total energy              =     -14.44866979 Ry
     Harris-Foulkes estimate   =     -14.44866974 Ry
     estimated scf accuracy    <       0.00000088 Ry

     iteration #  2     ecut=     8.00 Ry     beta=0.70
     Davidson diagonalization with overlap
     ethr =  1.09E-08,  avg # of iterations =  2.0

     total cpu time spent up to now is        0.3 secs

     total energy              =     -14.44866987 Ry
     Harris-Foulkes estimate   =     -14.44866984 Ry
     estimated scf accuracy    <       0.00000007 Ry

     iteration #  3     ecut=     8.00 Ry     beta=0.70
     Davidson diagonalization with overlap
     ethr =  8.47E-10,  avg # of iterations =  1.0

     total cpu time spent up to now is        0.3 secs

     End of self-consistent calculation

          k = 0.0000 0.0000 0.0000 (   113 PWs)   bands (ev):

    -4.7625   7.2321   7.4770   7.4770

     highest occupied level (ev):     7.4770

!    total energy              =     -14.44866987 Ry
     Harris-Foulkes estimate   =     -14.44866987 Ry
     estimated scf accuracy    <          1.4E-09 Ry

     convergence has been achieved in   3 iterations

     Forces acting on atoms (Ry/au):

     atom    1 type  1   force =    -0.01604747   -0.01604756   -0.01604758
     atom    2 type  1   force =     0.01604747    0.01604756    0.01604758

     Total force =     0.039308     Total SCF correction =     0.000011

     Entering Dynamics:    iteration =     7
                           time      =   0.0068 pico-seconds


ATOMIC_POSITIONS (alat)
Si      -0.123813637  -0.123813627  -0.123813626
Si       0.123813637   0.123813627   0.123813626


     kinetic energy (Ekin) =     0.00072909 Ry
     temperature           =    76.74272086 K 
     Ekin + Etot (const)   =   -14.44794078 Ry

     Linear momentum :    0.0000000000    0.0000000000    0.0000000000

     Writing output data file pwscf.save

     second order wave-functions extrapolation
     NEW-OLD atomic charge density approx. for the potential

     total cpu time spent up to now is        0.3 secs

     per-process dynamical memory:     2.6 Mb

     Self-consistent Calculation

     iteration #  1     ecut=     8.00 Ry     beta=0.70
     Davidson diagonalization with overlap
     ethr =  1.00E-06,  avg # of iterations =  2.0

     Threshold (ethr) on eigenvalues was too large:
     Diagonalizing with lowered threshold

     Davidson diagonalization with overlap
     ethr =  1.44E-08,  avg # of iterations =  1.0

     total cpu time spent up to now is        0.3 secs

     total energy              =     -14.44885461 Ry
     Harris-Foulkes estimate   =     -14.44885457 Ry
     estimated scf accuracy    <       0.00000115 Ry

     iteration #  2     ecut=     8.00 Ry     beta=0.70
     Davidson diagonalization with overlap
     ethr =  1.44E-08,  avg # of iterations =  2.0

     total cpu time spent up to now is        0.3 secs

     total energy              =     -14.44885473 Ry
     Harris-Foulkes estimate   =     -14.44885469 Ry
     estimated scf accuracy    <       0.00000009 Ry

     iteration #  3     ecut=     8.00 Ry     beta=0.70
     Davidson diagonalization with overlap
     ethr =  1.14E-09,  avg # of iterations =  1.0

     total cpu time spent up to now is        0.3 secs

     End of self-consistent calculation

          k = 0.0000 0.0000 0.0000 (   113 PWs)   bands (ev):

    -4.7622   7.2559   7.4649   7.4649

     highest occupied level (ev):     7.4649

!    total energy              =     -14.44885473 Ry
     Harris-Foulkes estimate   =     -14.44885473 Ry
     estimated scf accuracy    <          2.4E-09 Ry

     convergence has been achieved in   3 iterations

     Forces acting on atoms (Ry/au):

     atom    1 type  1   force =    -0.01365468   -0.01365479   -0.01365480
     atom    2 type  1   force =     0.01365468    0.01365479    0.01365480

     Total force =     0.033447     Total SCF correction =     0.000011

     Entering Dynamics:    iteration =     8
                           time      =   0.0077 pico-seconds


ATOMIC_POSITIONS (alat)
Si      -0.124038340  -0.124038328  -0.124038327
Si       0.124038340   0.124038328   0.124038327


     kinetic energy (Ekin) =     0.00091307 Ry
     temperature           =    96.10850830 K 
     Ekin + Etot (const)   =   -14.44794166 Ry

     Linear momentum :    0.0000000000    0.0000000000    0.0000000000

     Writing output data file pwscf.save

     second order wave-functions extrapolation
     NEW-OLD atomic charge density approx. for the potential

     total cpu time spent up to now is        0.3 secs

     per-process dynamical memory:     2.6 Mb

     Self-consistent Calculation

     iteration #  1     ecut=     8.00 Ry     beta=0.70
     Davidson diagonalization with overlap
     ethr =  1.00E-06,  avg # of iterations =  2.0

     Threshold (ethr) on eigenvalues was too large:
     Diagonalizing with lowered threshold

     Davidson diagonalization with overlap
     ethr =  1.75E-08,  avg # of iterations =  1.0

     total cpu time spent up to now is        0.3 secs

     total energy              =     -14.44902404 Ry
     Harris-Foulkes estimate   =     -14.44902400 Ry
     estimated scf accuracy    <       0.00000140 Ry

     iteration #  2     ecut=     8.00 Ry     beta=0.70
     Davidson diagonalization with overlap
     ethr =  1.75E-08,  avg # of iterations =  2.0

     total cpu time spent up to now is        0.3 secs

     total energy              =     -14.44902419 Ry
     Harris-Foulkes estimate   =     -14.44902414 Ry
     estimated scf accuracy    <       0.00000011 Ry

     iteration #  3     ecut=     8.00 Ry     beta=0.70
     Davidson diagonalization with overlap
     ethr =  1.38E-09,  avg # of iterations =  1.0

     total cpu time spent up to now is        0.3 secs

     End of self-consistent calculation

          k = 0.0000 0.0000 0.0000 (   113 PWs)   bands (ev):

    -4.7618   7.2821   7.4516   7.4516

     highest occupied level (ev):     7.4516

!    total energy              =     -14.44902419 Ry
     Harris-Foulkes estimate   =     -14.44902419 Ry
     estimated scf accuracy    <          3.0E-09 Ry

     convergence has been achieved in   3 iterations

     Forces acting on atoms (Ry/au):

     atom    1 type  1   force =    -0.01103166   -0.01103178   -0.01103180
     atom    2 type  1   force =     0.01103166    0.01103178    0.01103180

     Total force =     0.027022     Total SCF correction =     0.000013

     Entering Dynamics:    iteration =     9
                           time      =   0.0087 pico-seconds


ATOMIC_POSITIONS (alat)
Si      -0.124279976  -0.124279963  -0.124279961
Si       0.124279976   0.124279963   0.124279961


     kinetic energy (Ekin) =     0.00108172 Ry
     temperature           =   113.86026838 K 
     Ekin + Etot (const)   =   -14.44794247 Ry

     Linear momentum :    0.0000000000    0.0000000000    0.0000000000

     Writing output data file pwscf.save

     second order wave-functions extrapolation
     NEW-OLD atomic charge density approx. for the potential

     total cpu time spent up to now is        0.3 secs

     per-process dynamical memory:     2.6 Mb

     Self-consistent Calculation

     iteration #  1     ecut=     8.00 Ry     beta=0.70
     Davidson diagonalization with overlap
     ethr =  1.00E-06,  avg # of iterations =  2.0

     Threshold (ethr) on eigenvalues was too large:
     Diagonalizing with lowered threshold

     Davidson diagonalization with overlap
     ethr =  2.03E-08,  avg # of iterations =  1.0

     total cpu time spent up to now is        0.4 secs

     total energy              =     -14.44916621 Ry
     Harris-Foulkes estimate   =     -14.44916618 Ry
     estimated scf accuracy    <       0.00000163 Ry

     iteration #  2     ecut=     8.00 Ry     beta=0.70
     Davidson diagonalization with overlap
     ethr =  2.03E-08,  avg # of iterations =  2.0

     total cpu time spent up to now is        0.4 secs

     total energy              =     -14.44916639 Ry
     Harris-Foulkes estimate   =     -14.44916633 Ry
     estimated scf accuracy    <       0.00000013 Ry

     iteration #  3     ecut=     8.00 Ry     beta=0.70
     Davidson diagonalization with overlap
     ethr =  1.60E-09,  avg # of iterations =  1.0

     total cpu time spent up to now is        0.4 secs

     End of self-consistent calculation

          k = 0.0000 0.0000 0.0000 (   113 PWs)   bands (ev):

    -4.7616   7.3104   7.4373   7.4373

     highest occupied level (ev):     7.4373

!    total energy              =     -14.44916640 Ry
     Harris-Foulkes estimate   =     -14.44916639 Ry
     estimated scf accuracy    <          3.5E-09 Ry

     convergence has been achieved in   3 iterations

     Forces acting on atoms (Ry/au):

     atom    1 type  1   force =    -0.00822968   -0.00822982   -0.00822984
     atom    2 type  1   force =     0.00822968    0.00822982    0.00822984

     Total force =     0.020159     Total SCF correction =     0.000014

     Entering Dynamics:    iteration =    10
                           time      =   0.0097 pico-seconds


ATOMIC_POSITIONS (alat)
Si      -0.124534244  -0.124534230  -0.124534228
Si       0.124534244   0.124534230   0.124534228


     kinetic energy (Ekin) =     0.00122323 Ry
     temperature           =   128.75520280 K 
     Ekin + Etot (const)   =   -14.44794316 Ry

     Linear momentum :    0.0000000000    0.0000000000    0.0000000000

     Writing output data file pwscf.save

     second order wave-functions extrapolation
     NEW-OLD atomic charge density approx. for the potential

     total cpu time spent up to now is        0.4 secs

     per-process dynamical memory:     2.6 Mb

     Self-consistent Calculation

     iteration #  1     ecut=     8.00 Ry     beta=0.70
     Davidson diagonalization with overlap
     ethr =  1.00E-06,  avg # of iterations =  2.0

     Threshold (ethr) on eigenvalues was too large:
     Diagonalizing with lowered threshold

     Davidson diagonalization with overlap
     ethr =  2.25E-08,  avg # of iterations =  1.0

     total cpu time spent up to now is        0.4 secs

     total energy              =     -14.44927134 Ry
     Harris-Foulkes estimate   =     -14.44927130 Ry
     estimated scf accuracy    <       0.00000180 Ry

     iteration #  2     ecut=     8.00 Ry     beta=0.70
     Davidson diagonalization with overlap
     ethr =  2.26E-08,  avg # of iterations =  2.0

     total cpu time spent up to now is        0.4 secs

     total energy              =     -14.44927154 Ry
     Harris-Foulkes estimate   =     -14.44927147 Ry
     estimated scf accuracy    <       0.00000014 Ry

     iteration #  3     ecut=     8.00 Ry     beta=0.70
     Davidson diagonalization with overlap
     ethr =  1.76E-09,  avg # of iterations =  1.0

     total cpu time spent up to now is        0.4 secs

     End of self-consistent calculation

          k = 0.0000 0.0000 0.0000 (   113 PWs)   bands (ev):

    -4.7614   7.3402   7.4223   7.4223

     highest occupied level (ev):     7.4223

!    total energy              =     -14.44927154 Ry
     Harris-Foulkes estimate   =     -14.44927154 Ry
     estimated scf accuracy    <          3.9E-09 Ry

     convergence has been achieved in   3 iterations

     Forces acting on atoms (Ry/au):

     atom    1 type  1   force =    -0.00530183   -0.00530199   -0.00530200
     atom    2 type  1   force =     0.00530183    0.00530199    0.00530200

     Total force =     0.012987     Total SCF correction =     0.000015

     Entering Dynamics:    iteration =    11
                           time      =   0.0106 pico-seconds


ATOMIC_POSITIONS (alat)
Si      -0.124796650  -0.124796635  -0.124796633
Si       0.124796650   0.124796635   0.124796633


     kinetic energy (Ekin) =     0.00132785 Ry
     temperature           =   139.76666455 K 
     Ekin + Etot (const)   =   -14.44794370 Ry

     Linear momentum :    0.0000000000    0.0000000000    0.0000000000

     Writing output data file pwscf.save

     second order wave-functions extrapolation
     NEW-OLD atomic charge density approx. for the potential

     total cpu time spent up to now is        0.4 secs

     per-process dynamical memory:     2.6 Mb

     Self-consistent Calculation

     iteration #  1     ecut=     8.00 Ry     beta=0.70
     Davidson diagonalization with overlap
     ethr =  1.00E-06,  avg # of iterations =  2.0

     Threshold (ethr) on eigenvalues was too large:
     Diagonalizing with lowered threshold

     Davidson diagonalization with overlap
     ethr =  2.40E-08,  avg # of iterations =  1.0

     total cpu time spent up to now is        0.4 secs

     total energy              =     -14.44933234 Ry
     Harris-Foulkes estimate   =     -14.44933231 Ry
     estimated scf accuracy    <       0.00000193 Ry

     iteration #  2     ecut=     8.00 Ry     beta=0.70
     Davidson diagonalization with overlap
     ethr =  2.41E-08,  avg # of iterations =  2.0

     total cpu time spent up to now is        0.4 secs

     total energy              =     -14.44933255 Ry
     Harris-Foulkes estimate   =     -14.44933248 Ry
     estimated scf accuracy    <       0.00000015 Ry

     iteration #  3     ecut=     8.00 Ry     beta=0.70
     Davidson diagonalization with overlap
     ethr =  1.87E-09,  avg # of iterations =  1.0

     total cpu time spent up to now is        0.4 secs

     End of self-consistent calculation

          k = 0.0000 0.0000 0.0000 (   113 PWs)   bands (ev):

    -4.7613   7.3711   7.4068   7.4068

     highest occupied level (ev):     7.4068

!    total energy              =     -14.44933256 Ry
     Harris-Foulkes estimate   =     -14.44933255 Ry
     estimated scf accuracy    <          4.3E-09 Ry

     convergence has been achieved in   3 iterations

     Forces acting on atoms (Ry/au):

     atom    1 type  1   force =    -0.00230210   -0.00230227   -0.00230229
     atom    2 type  1   force =     0.00230210    0.00230227    0.00230229

     Total force =     0.005639     Total SCF correction =     0.000015

     Entering Dynamics:    iteration =    12
                           time      =   0.0116 pico-seconds


ATOMIC_POSITIONS (alat)
Si      -0.125062589  -0.125062574  -0.125062572
Si       0.125062589   0.125062574   0.125062572


     kinetic energy (Ekin) =     0.00138852 Ry
     temperature           =   146.15282265 K 
     Ekin + Etot (const)   =   -14.44794404 Ry

     Linear momentum :    0.0000000000    0.0000000000    0.0000000000

     Writing output data file pwscf.save

     second order wave-functions extrapolation
     NEW-OLD atomic charge density approx. for the potential

     total cpu time spent up to now is        0.4 secs

     per-process dynamical memory:     2.6 Mb

     Self-consistent Calculation

     iteration #  1     ecut=     8.00 Ry     beta=0.70
     Davidson diagonalization with overlap
     ethr =  1.00E-06,  avg # of iterations =  2.0

     Threshold (ethr) on eigenvalues was too large:
     Diagonalizing with lowered threshold

     Davidson diagonalization with overlap
     ethr =  2.48E-08,  avg # of iterations =  1.0

     total cpu time spent up to now is        0.4 secs

     total energy              =     -14.44934529 Ry
     Harris-Foulkes estimate   =     -14.44934527 Ry
     estimated scf accuracy    <       0.00000199 Ry

     iteration #  2     ecut=     8.00 Ry     beta=0.70
     Davidson diagonalization with overlap
     ethr =  2.48E-08,  avg # of iterations =  2.0

     total cpu time spent up to now is        0.4 secs

     total energy              =     -14.44934552 Ry
     Harris-Foulkes estimate   =     -14.44934544 Ry
     estimated scf accuracy    <       0.00000015 Ry

     iteration #  3     ecut=     8.00 Ry     beta=0.70
     Davidson diagonalization with overlap
     ethr =  1.92E-09,  avg # of iterations =  1.0

     total cpu time spent up to now is        0.4 secs

     End of self-consistent calculation

          k = 0.0000 0.0000 0.0000 (   113 PWs)   bands (ev):

    -4.7612   7.3911   7.3911   7.4023

     highest occupied level (ev):     7.4023

!    total energy              =     -14.44934552 Ry
     Harris-Foulkes estimate   =     -14.44934552 Ry
     estimated scf accuracy    <          4.5E-09 Ry

     convergence has been achieved in   3 iterations

     Forces acting on atoms (Ry/au):

     atom    1 type  1   force =     0.00071580    0.00071558    0.00071556
     atom    2 type  1   force =    -0.00071580   -0.00071558   -0.00071556

     Total force =     0.001753     Total SCF correction =     0.000016

     Entering Dynamics:    iteration =    13
                           time      =   0.0126 pico-seconds


ATOMIC_POSITIONS (alat)
Si      -0.125327430  -0.125327414  -0.125327413
Si       0.125327430   0.125327414   0.125327413


     kinetic energy (Ekin) =     0.00140135 Ry
     temperature           =   147.50325599 K 
     Ekin + Etot (const)   =   -14.44794417 Ry

     Linear momentum :    0.0000000000    0.0000000000    0.0000000000

     Writing output data file pwscf.save

     second order wave-functions extrapolation
     NEW-OLD atomic charge density approx. for the potential

     total cpu time spent up to now is        0.5 secs

     per-process dynamical memory:     2.6 Mb

     Self-consistent Calculation

     iteration #  1     ecut=     8.00 Ry     beta=0.70
     Davidson diagonalization with overlap
     ethr =  1.00E-06,  avg # of iterations =  2.0

     Threshold (ethr) on eigenvalues was too large:
     Diagonalizing with lowered threshold

     Davidson diagonalization with overlap
     ethr =  2.46E-08,  avg # of iterations =  1.0

     total cpu time spent up to now is        0.5 secs

     total energy              =     -14.44930967 Ry
     Harris-Foulkes estimate   =     -14.44930965 Ry
     estimated scf accuracy    <       0.00000197 Ry

     iteration #  2     ecut=     8.00 Ry     beta=0.70
     Davidson diagonalization with overlap
     ethr =  2.47E-08,  avg # of iterations =  2.0

     total cpu time spent up to now is        0.5 secs

     total energy              =     -14.44930989 Ry
     Harris-Foulkes estimate   =     -14.44930982 Ry
     estimated scf accuracy    <       0.00000015 Ry

     iteration #  3     ecut=     8.00 Ry     beta=0.70
     Davidson diagonalization with overlap
     ethr =  1.90E-09,  avg # of iterations =  1.0

     total cpu time spent up to now is        0.5 secs

     End of self-consistent calculation

          k = 0.0000 0.0000 0.0000 (   113 PWs)   bands (ev):

    -4.7613   7.3756   7.3756   7.4335

     highest occupied level (ev):     7.4335

!    total energy              =     -14.44930990 Ry
     Harris-Foulkes estimate   =     -14.44930989 Ry
     estimated scf accuracy    <          4.5E-09 Ry

     convergence has been achieved in   3 iterations

     Forces acting on atoms (Ry/au):

     atom    1 type  1   force =     0.00369912    0.00369894    0.00369892
     atom    2 type  1   force =    -0.00369912   -0.00369894   -0.00369892

     Total force =     0.009061     Total SCF correction =     0.000016

     Entering Dynamics:    iteration =    14
                           time      =   0.0135 pico-seconds


ATOMIC_POSITIONS (alat)
Si      -0.125586593  -0.125586577  -0.125586576
Si       0.125586593   0.125586577   0.125586576


     kinetic energy (Ekin) =     0.00136579 Ry
     temperature           =   143.76108893 K 
     Ekin + Etot (const)   =   -14.44794410 Ry

     Linear momentum :    0.0000000000    0.0000000000    0.0000000000

     Writing output data file pwscf.save

     second order wave-functions extrapolation
     NEW-OLD atomic charge density approx. for the potential

     total cpu time spent up to now is        0.5 secs

     per-process dynamical memory:     2.6 Mb

     Self-consistent Calculation

     iteration #  1     ecut=     8.00 Ry     beta=0.70
     Davidson diagonalization with overlap
     ethr =  1.00E-06,  avg # of iterations =  2.0

     Threshold (ethr) on eigenvalues was too large:
     Diagonalizing with lowered threshold

     Davidson diagonalization with overlap
     ethr =  2.36E-08,  avg # of iterations =  1.0

     total cpu time spent up to now is        0.5 secs

     total energy              =     -14.44922826 Ry
     Harris-Foulkes estimate   =     -14.44922825 Ry
     estimated scf accuracy    <       0.00000189 Ry

     iteration #  2     ecut=     8.00 Ry     beta=0.70
     Davidson diagonalization with overlap
     ethr =  2.37E-08,  avg # of iterations =  2.0

     total cpu time spent up to now is        0.5 secs

     total energy              =     -14.44922848 Ry
     Harris-Foulkes estimate   =     -14.44922841 Ry
     estimated scf accuracy    <       0.00000014 Ry

     iteration #  3     ecut=     8.00 Ry     beta=0.70
     Davidson diagonalization with overlap
     ethr =  1.81E-09,  avg # of iterations =  1.0

     total cpu time spent up to now is        0.5 secs

     End of self-consistent calculation

          k = 0.0000 0.0000 0.0000 (   113 PWs)   bands (ev):

    -4.7615   7.3604   7.3604   7.4641

     highest occupied level (ev):     7.4641

!    total energy              =     -14.44922848 Ry
     Harris-Foulkes estimate   =     -14.44922848 Ry
     estimated scf accuracy    <          4.4E-09 Ry

     convergence has been achieved in   3 iterations

     Forces acting on atoms (Ry/au):

     atom    1 type  1   force =     0.00659762    0.00659744    0.00659743
     atom    2 type  1   force =    -0.00659762   -0.00659744   -0.00659743

     Total force =     0.016161     Total SCF correction =     0.000016

     Entering Dynamics:    iteration =    15
                           time      =   0.0145 pico-seconds


ATOMIC_POSITIONS (alat)
Si      -0.125835629  -0.125835613  -0.125835612
Si       0.125835629   0.125835613   0.125835612


     kinetic energy (Ekin) =     0.00128465 Ry
     temperature           =   135.21988423 K 
     Ekin + Etot (const)   =   -14.44794383 Ry

     Linear momentum :    0.0000000000    0.0000000000    0.0000000000

     Writing output data file pwscf.save

     second order wave-functions extrapolation
     NEW-OLD atomic charge density approx. for the potential

     total cpu time spent up to now is        0.5 secs

     per-process dynamical memory:     2.6 Mb

     Self-consistent Calculation

     iteration #  1     ecut=     8.00 Ry     beta=0.70
     Davidson diagonalization with overlap
     ethr =  1.00E-06,  avg # of iterations =  2.0

     Threshold (ethr) on eigenvalues was too large:
     Diagonalizing with lowered threshold

     Davidson diagonalization with overlap
     ethr =  2.19E-08,  avg # of iterations =  1.0

     total cpu time spent up to now is        0.5 secs

     total energy              =     -14.44910696 Ry
     Harris-Foulkes estimate   =     -14.44910696 Ry
     estimated scf accuracy    <       0.00000175 Ry

     iteration #  2     ecut=     8.00 Ry     beta=0.70
     Davidson diagonalization with overlap
     ethr =  2.19E-08,  avg # of iterations =  2.0

     total cpu time spent up to now is        0.5 secs

     total energy              =     -14.44910716 Ry
     Harris-Foulkes estimate   =     -14.44910710 Ry
     estimated scf accuracy    <       0.00000013 Ry

     iteration #  3     ecut=     8.00 Ry     beta=0.70
     Davidson diagonalization with overlap
     ethr =  1.67E-09,  avg # of iterations =  1.0

     total cpu time spent up to now is        0.5 secs

     End of self-consistent calculation

          k = 0.0000 0.0000 0.0000 (   113 PWs)   bands (ev):

    -4.7617   7.3458   7.3458   7.4936

     highest occupied level (ev):     7.4936

!    total energy              =     -14.44910717 Ry
     Harris-Foulkes estimate   =     -14.44910716 Ry
     estimated scf accuracy    <          4.1E-09 Ry

     convergence has been achieved in   3 iterations

     Forces acting on atoms (Ry/au):

     atom    1 type  1   force =     0.00936364    0.00936346    0.00936344
     atom    2 type  1   force =    -0.00936364   -0.00936346   -0.00936344

     Total force =     0.022936     Total SCF correction =     0.000015

     Entering Dynamics:    iteration =    16
                           time      =   0.0155 pico-seconds


ATOMIC_POSITIONS (alat)
Si      -0.126070292  -0.126070277  -0.126070276
Si       0.126070292   0.126070277   0.126070276


     kinetic energy (Ekin) =     0.00116377 Ry
     temperature           =   122.49678868 K 
     Ekin + Etot (const)   =   -14.44794339 Ry

     Linear momentum :    0.0000000000    0.0000000000    0.0000000000

     Writing output data file pwscf.save

     second order wave-functions extrapolation
     NEW-OLD atomic charge density approx. for the potential

     total cpu time spent up to now is        0.6 secs

     per-process dynamical memory:     2.6 Mb

     Self-consistent Calculation

     iteration #  1     ecut=     8.00 Ry     beta=0.70
     Davidson diagonalization with overlap
     ethr =  1.00E-06,  avg # of iterations =  2.0

     Threshold (ethr) on eigenvalues was too large:
     Diagonalizing with lowered threshold

     Davidson diagonalization with overlap
     ethr =  1.95E-08,  avg # of iterations =  1.0

     total cpu time spent up to now is        0.6 secs

     total energy              =     -14.44895429 Ry
     Harris-Foulkes estimate   =     -14.44895429 Ry
     estimated scf accuracy    <       0.00000156 Ry

     iteration #  2     ecut=     8.00 Ry     beta=0.70
     Davidson diagonalization with overlap
     ethr =  1.95E-08,  avg # of iterations =  2.0

     total cpu time spent up to now is        0.6 secs

     total energy              =     -14.44895447 Ry
     Harris-Foulkes estimate   =     -14.44895441 Ry
     estimated scf accuracy    <       0.00000012 Ry

     iteration #  3     ecut=     8.00 Ry     beta=0.70
     Davidson diagonalization with overlap
     ethr =  1.48E-09,  avg # of iterations =  1.0

     total cpu time spent up to now is        0.6 secs

     End of self-consistent calculation

          k = 0.0000 0.0000 0.0000 (   113 PWs)   bands (ev):

    -4.7620   7.3321   7.3321   7.5213

     highest occupied level (ev):     7.5213

!    total energy              =     -14.44895447 Ry
     Harris-Foulkes estimate   =     -14.44895447 Ry
     estimated scf accuracy    <          3.7E-09 Ry

     convergence has been achieved in   3 iterations

     Forces acting on atoms (Ry/au):

     atom    1 type  1   force =     0.01195298    0.01195280    0.01195279
     atom    2 type  1   force =    -0.01195298   -0.01195280   -0.01195279

     Total force =     0.029278     Total SCF correction =     0.000014

     Entering Dynamics:    iteration =    17
                           time      =   0.0164 pico-seconds


ATOMIC_POSITIONS (alat)
Si      -0.126286609  -0.126286594  -0.126286593
Si       0.126286609   0.126286594   0.126286593


     kinetic energy (Ekin) =     0.00101165 Ry
     temperature           =   106.48494515 K 
     Ekin + Etot (const)   =   -14.44794282 Ry

     Linear momentum :    0.0000000000    0.0000000000    0.0000000000

     Writing output data file pwscf.save

     second order wave-functions extrapolation
     NEW-OLD atomic charge density approx. for the potential

     total cpu time spent up to now is        0.6 secs

     per-process dynamical memory:     2.6 Mb

     Self-consistent Calculation

     iteration #  1     ecut=     8.00 Ry     beta=0.70
     Davidson diagonalization with overlap
     ethr =  1.00E-06,  avg # of iterations =  2.0

     Threshold (ethr) on eigenvalues was too large:
     Diagonalizing with lowered threshold

     Davidson diagonalization with overlap
     ethr =  1.66E-08,  avg # of iterations =  1.0

     total cpu time spent up to now is        0.6 secs

     total energy              =     -14.44878078 Ry
     Harris-Foulkes estimate   =     -14.44878079 Ry
     estimated scf accuracy    <       0.00000133 Ry

     iteration #  2     ecut=     8.00 Ry     beta=0.70
     Davidson diagonalization with overlap
     ethr =  1.66E-08,  avg # of iterations =  2.0

     total cpu time spent up to now is        0.6 secs

     total energy              =     -14.44878093 Ry
     Harris-Foulkes estimate   =     -14.44878088 Ry
     estimated scf accuracy    <       0.00000010 Ry

     iteration #  3     ecut=     8.00 Ry     beta=0.70
     Davidson diagonalization with overlap
     ethr =  1.25E-09,  avg # of iterations =  1.0

     total cpu time spent up to now is        0.6 secs

     End of self-consistent calculation

          k = 0.0000 0.0000 0.0000 (   113 PWs)   bands (ev):

    -4.7623   7.3195   7.3195   7.5470

     highest occupied level (ev):     7.5470

!    total energy              =     -14.44878093 Ry
     Harris-Foulkes estimate   =     -14.44878093 Ry
     estimated scf accuracy    <          3.2E-09 Ry

     convergence has been achieved in   3 iterations

     Forces acting on atoms (Ry/au):

     atom    1 type  1   force =     0.01432539    0.01432522    0.01432521
     atom    2 type  1   force =    -0.01432539   -0.01432522   -0.01432521

     Total force =     0.035090     Total SCF correction =     0.000013

     Entering Dynamics:    iteration =    18
                           time      =   0.0174 pico-seconds


ATOMIC_POSITIONS (alat)
Si      -0.126480936  -0.126480923  -0.126480922
Si       0.126480936   0.126480923   0.126480922


     kinetic energy (Ekin) =     0.00083878 Ry
     temperature           =    88.28885762 K 
     Ekin + Etot (const)   =   -14.44794215 Ry

     Linear momentum :    0.0000000000    0.0000000000    0.0000000000

     Writing output data file pwscf.save

     second order wave-functions extrapolation
     NEW-OLD atomic charge density approx. for the potential

     total cpu time spent up to now is        0.6 secs

     per-process dynamical memory:     2.6 Mb

     Self-consistent Calculation

     iteration #  1     ecut=     8.00 Ry     beta=0.70
     Davidson diagonalization with overlap
     ethr =  1.00E-06,  avg # of iterations =  2.0

     Threshold (ethr) on eigenvalues was too large:
     Diagonalizing with lowered threshold

     Davidson diagonalization with overlap
     ethr =  1.34E-08,  avg # of iterations =  1.0

     total cpu time spent up to now is        0.6 secs

     total energy              =     -14.44859825 Ry
     Harris-Foulkes estimate   =     -14.44859826 Ry
     estimated scf accuracy    <       0.00000107 Ry

     iteration #  2     ecut=     8.00 Ry     beta=0.70
     Davidson diagonalization with overlap
     ethr =  1.34E-08,  avg # of iterations =  2.0

     total cpu time spent up to now is        0.6 secs

     total energy              =     -14.44859837 Ry
     Harris-Foulkes estimate   =     -14.44859833 Ry
     estimated scf accuracy    <       0.00000008 Ry

     iteration #  3     ecut=     8.00 Ry     beta=0.70
     Davidson diagonalization with overlap
     ethr =  1.01E-09,  avg # of iterations =  1.0

     total cpu time spent up to now is        0.6 secs

     End of self-consistent calculation

          k = 0.0000 0.0000 0.0000 (   113 PWs)   bands (ev):

    -4.7626   7.3082   7.3082   7.5700

     highest occupied level (ev):     7.5700

!    total energy              =     -14.44859838 Ry
     Harris-Foulkes estimate   =     -14.44859837 Ry
     estimated scf accuracy    <          2.6E-09 Ry

     convergence has been achieved in   3 iterations

     Forces acting on atoms (Ry/au):

     atom    1 type  1   force =     0.01644484    0.01644469    0.01644468
     atom    2 type  1   force =    -0.01644484   -0.01644469   -0.01644468

     Total force =     0.040281     Total SCF correction =     0.000012

     Entering Dynamics:    iteration =    19
                           time      =   0.0184 pico-seconds


ATOMIC_POSITIONS (alat)
Si      -0.126650022  -0.126650009  -0.126650009
Si       0.126650022   0.126650009   0.126650009


     kinetic energy (Ekin) =     0.00065693 Ry
     temperature           =    69.14774527 K 
     Ekin + Etot (const)   =   -14.44794144 Ry

     Linear momentum :    0.0000000000    0.0000000000    0.0000000000

     Writing output data file pwscf.save

     second order wave-functions extrapolation
     NEW-OLD atomic charge density approx. for the potential

     total cpu time spent up to now is        0.7 secs

     per-process dynamical memory:     2.6 Mb

     Self-consistent Calculation

     iteration #  1     ecut=     8.00 Ry     beta=0.70
     Davidson diagonalization with overlap
     ethr =  1.00E-06,  avg # of iterations =  2.0

     Threshold (ethr) on eigenvalues was too large:
     Diagonalizing with lowered threshold

     Davidson diagonalization with overlap
     ethr =  1.02E-08,  avg # of iterations =  1.0

     total cpu time spent up to now is        0.7 secs

     total energy              =     -14.44841901 Ry
     Harris-Foulkes estimate   =     -14.44841902 Ry
     estimated scf accuracy    <       0.00000082 Ry

     iteration #  2     ecut=     8.00 Ry     beta=0.70
     Davidson diagonalization with overlap
     ethr =  1.02E-08,  avg # of iterations =  2.0

     total cpu time spent up to now is        0.7 secs

     total energy              =     -14.44841910 Ry
     Harris-Foulkes estimate   =     -14.44841907 Ry
     estimated scf accuracy    <       0.00000006 Ry

     iteration #  3     ecut=     8.00 Ry     beta=0.70
     Davidson diagonalization with overlap
     ethr =  7.63E-10,  avg # of iterations =  1.0

     total cpu time spent up to now is        0.7 secs

     End of self-consistent calculation

          k = 0.0000 0.0000 0.0000 (   113 PWs)   bands (ev):

    -4.7630   7.2984   7.2984   7.5901

     highest occupied level (ev):     7.5901

!    total energy              =     -14.44841910 Ry
     Harris-Foulkes estimate   =     -14.44841910 Ry
     estimated scf accuracy    <          2.0E-09 Ry

     convergence has been achieved in   3 iterations

     Forces acting on atoms (Ry/au):

     atom    1 type  1   force =     0.01828004    0.01827990    0.01827989
     atom    2 type  1   force =    -0.01828004   -0.01827990   -0.01827989

     Total force =     0.044777     Total SCF correction =     0.000011

     Entering Dynamics:    iteration =    20
                           time      =   0.0194 pico-seconds


ATOMIC_POSITIONS (alat)
Si      -0.126791049  -0.126791038  -0.126791037
Si       0.126791049   0.126791038   0.126791037


     kinetic energy (Ekin) =     0.00047837 Ry
     temperature           =    50.35199456 K 
     Ekin + Etot (const)   =   -14.44794074 Ry

     Linear momentum :    0.0000000000    0.0000000000    0.0000000000

     Writing output data file pwscf.save

     second order wave-functions extrapolation
     NEW-OLD atomic charge density approx. for the potential

     total cpu time spent up to now is        0.7 secs

     per-process dynamical memory:     2.6 Mb

     Self-consistent Calculation

     iteration #  1     ecut=     8.00 Ry     beta=0.70
     Davidson diagonalization with overlap
     ethr =  1.00E-06,  avg # of iterations =  1.0

     Threshold (ethr) on eigenvalues was too large:
     Diagonalizing with lowered threshold

     Davidson diagonalization with overlap
     ethr =  6.83E-09,  avg # of iterations =  1.0

     total cpu time spent up to now is        0.7 secs

     total energy              =     -14.44825505 Ry
     Harris-Foulkes estimate   =     -14.44825505 Ry
     estimated scf accuracy    <       0.00000056 Ry

     iteration #  2     ecut=     8.00 Ry     beta=0.70
     Davidson diagonalization with overlap
     ethr =  6.98E-09,  avg # of iterations =  2.0

     total cpu time spent up to now is        0.7 secs

     total energy              =     -14.44825511 Ry
     Harris-Foulkes estimate   =     -14.44825508 Ry
     estimated scf accuracy    <       0.00000004 Ry

     iteration #  3     ecut=     8.00 Ry     beta=0.70
     Davidson diagonalization with overlap
     ethr =  5.08E-10,  avg # of iterations =  1.0

     total cpu time spent up to now is        0.7 secs

     End of self-consistent calculation

          k = 0.0000 0.0000 0.0000 (   113 PWs)   bands (ev):

    -4.7633   7.2902   7.2902   7.6069

     highest occupied level (ev):     7.6069

!    total energy              =     -14.44825511 Ry
     Harris-Foulkes estimate   =     -14.44825511 Ry
     estimated scf accuracy    <          1.1E-09 Ry

     convergence has been achieved in   3 iterations

     Forces acting on atoms (Ry/au):

     atom    1 type  1   force =     0.01980441    0.01980429    0.01980428
     atom    2 type  1   force =    -0.01980441   -0.01980429   -0.01980428

     Total force =     0.048510     Total SCF correction =     0.000009

     Entering Dynamics:    iteration =    21
                           time      =   0.0203 pico-seconds


ATOMIC_POSITIONS (alat)
Si      -0.126901677  -0.126901668  -0.126901667
Si       0.126901677   0.126901668   0.126901667


     kinetic energy (Ekin) =     0.00031502 Ry
     temperature           =    33.15825040 K 
     Ekin + Etot (const)   =   -14.44794009 Ry

     Linear momentum :    0.0000000000    0.0000000000    0.0000000000

     Writing output data file pwscf.save

     second order wave-functions extrapolation
     NEW-OLD atomic charge density approx. for the potential

     total cpu time spent up to now is        0.7 secs

     per-process dynamical memory:     2.6 Mb

     Self-consistent Calculation

     iteration #  1     ecut=     8.00 Ry     beta=0.70
     Davidson diagonalization with overlap
     ethr =  1.00E-06,  avg # of iterations =  1.0

     Threshold (ethr) on eigenvalues was too large:
     Diagonalizing with lowered threshold

     Davidson diagonalization with overlap
     ethr =  4.21E-09,  avg # of iterations =  1.0

     total cpu time spent up to now is        0.7 secs

     total energy              =     -14.44811724 Ry
     Harris-Foulkes estimate   =     -14.44811724 Ry
     estimated scf accuracy    <       0.00000034 Ry

     iteration #  2     ecut=     8.00 Ry     beta=0.70
     Davidson diagonalization with overlap
     ethr =  4.30E-09,  avg # of iterations =  2.0

     total cpu time spent up to now is        0.7 secs

     total energy              =     -14.44811728 Ry
     Harris-Foulkes estimate   =     -14.44811727 Ry
     estimated scf accuracy    <       0.00000002 Ry

     iteration #  3     ecut=     8.00 Ry     beta=0.70
     Davidson diagonalization with overlap
     ethr =  3.12E-10,  avg # of iterations =  1.0

     total cpu time spent up to now is        0.7 secs

     End of self-consistent calculation

          k = 0.0000 0.0000 0.0000 (   113 PWs)   bands (ev):

    -4.7635   7.2838   7.2838   7.6200

     highest occupied level (ev):     7.6200

!    total energy              =     -14.44811728 Ry
     Harris-Foulkes estimate   =     -14.44811728 Ry
     estimated scf accuracy    <          6.9E-10 Ry

     convergence has been achieved in   3 iterations

     Forces acting on atoms (Ry/au):

     atom    1 type  1   force =     0.02099589    0.02099578    0.02099578
     atom    2 type  1   force =    -0.02099589   -0.02099578   -0.02099578

     Total force =     0.051429     Total SCF correction =     0.000007

     Entering Dynamics:    iteration =    22
                           time      =   0.0213 pico-seconds


ATOMIC_POSITIONS (alat)
Si      -0.126980077  -0.126980070  -0.126980070
Si       0.126980077   0.126980070   0.126980070


     kinetic energy (Ekin) =     0.00017774 Ry
     temperature           =    18.70856080 K 
     Ekin + Etot (const)   =   -14.44793954 Ry

     Linear momentum :    0.0000000000    0.0000000000    0.0000000000

     Writing output data file pwscf.save

     second order wave-functions extrapolation
     NEW-OLD atomic charge density approx. for the potential

     total cpu time spent up to now is        0.8 secs

     per-process dynamical memory:     2.6 Mb

     Self-consistent Calculation

     iteration #  1     ecut=     8.00 Ry     beta=0.70
     Davidson diagonalization with overlap
     ethr =  1.00E-06,  avg # of iterations =  1.0

     Threshold (ethr) on eigenvalues was too large:
     Diagonalizing with lowered threshold

     Davidson diagonalization with overlap
     ethr =  2.11E-09,  avg # of iterations =  1.0

     total cpu time spent up to now is        0.8 secs

     total energy              =     -14.44801471 Ry
     Harris-Foulkes estimate   =     -14.44801471 Ry
     estimated scf accuracy    <       0.00000017 Ry

     iteration #  2     ecut=     8.00 Ry     beta=0.70
     Davidson diagonalization with overlap
     ethr =  2.16E-09,  avg # of iterations =  2.0

     total cpu time spent up to now is        0.8 secs

     total energy              =     -14.44801473 Ry
     Harris-Foulkes estimate   =     -14.44801472 Ry
     estimated scf accuracy    <       0.00000001 Ry

     iteration #  3     ecut=     8.00 Ry     beta=0.70
     Davidson diagonalization with overlap
     ethr =  1.57E-10,  avg # of iterations =  1.0

     total cpu time spent up to now is        0.8 secs

     End of self-consistent calculation

          k = 0.0000 0.0000 0.0000 (   113 PWs)   bands (ev):

    -4.7637   7.2793   7.2793   7.6293

     highest occupied level (ev):     7.6293

!    total energy              =     -14.44801473 Ry
     Harris-Foulkes estimate   =     -14.44801473 Ry
     estimated scf accuracy    <          3.5E-10 Ry

     convergence has been achieved in   3 iterations

     Forces acting on atoms (Ry/au):

     atom    1 type  1   force =     0.02183790    0.02183781    0.02183781
     atom    2 type  1   force =    -0.02183790   -0.02183781   -0.02183781

     Total force =     0.053492     Total SCF correction =     0.000005

     Entering Dynamics:    iteration =    23
                           time      =   0.0223 pico-seconds


ATOMIC_POSITIONS (alat)
Si      -0.127024958  -0.127024953  -0.127024953
Si       0.127024958   0.127024953   0.127024953


     kinetic energy (Ekin) =     0.00007560 Ry
     temperature           =     7.95768954 K 
     Ekin + Etot (const)   =   -14.44793913 Ry

     Linear momentum :    0.0000000000    0.0000000000    0.0000000000

     Writing output data file pwscf.save

     second order wave-functions extrapolation
     NEW-OLD atomic charge density approx. for the potential

     total cpu time spent up to now is        0.8 secs

     per-process dynamical memory:     2.6 Mb

     Self-consistent Calculation

     iteration #  1     ecut=     8.00 Ry     beta=0.70
     Davidson diagonalization with overlap
     ethr =  1.00E-06,  avg # of iterations =  1.0

     Threshold (ethr) on eigenvalues was too large:
     Diagonalizing with lowered threshold

     Davidson diagonalization with overlap
     ethr =  6.93E-10,  avg # of iterations =  1.0

     total cpu time spent up to now is        0.8 secs

     total energy              =     -14.44795421 Ry
     Harris-Foulkes estimate   =     -14.44795420 Ry
     estimated scf accuracy    <       0.00000006 Ry

     iteration #  2     ecut=     8.00 Ry     beta=0.70
     Davidson diagonalization with overlap
     ethr =  7.08E-10,  avg # of iterations =  2.0

     total cpu time spent up to now is        0.8 secs

     End of self-consistent calculation

          k = 0.0000 0.0000 0.0000 (   113 PWs)   bands (ev):

    -4.7638   7.2767   7.2767   7.6347

     highest occupied level (ev):     7.6347

!    total energy              =     -14.44795421 Ry
     Harris-Foulkes estimate   =     -14.44795421 Ry
     estimated scf accuracy    <          4.1E-09 Ry

     convergence has been achieved in   2 iterations

     Forces acting on atoms (Ry/au):

     atom    1 type  1   force =     0.02232184    0.02232178    0.02232178
     atom    2 type  1   force =    -0.02232184   -0.02232178   -0.02232178

     Total force =     0.054677     Total SCF correction =     0.000008

     Entering Dynamics:    iteration =    24
                           time      =   0.0232 pico-seconds


ATOMIC_POSITIONS (alat)
Si      -0.127035576  -0.127035573  -0.127035573
Si       0.127035576   0.127035573   0.127035573


     kinetic energy (Ekin) =     0.00001532 Ry
     temperature           =     1.61281097 K 
     Ekin + Etot (const)   =   -14.44793889 Ry

     Linear momentum :    0.0000000000    0.0000000000    0.0000000000

     Writing output data file pwscf.save

     second order wave-functions extrapolation
     NEW-OLD atomic charge density approx. for the potential

     total cpu time spent up to now is        0.8 secs

     per-process dynamical memory:     2.6 Mb

     Self-consistent Calculation

     iteration #  1     ecut=     8.00 Ry     beta=0.70
     Davidson diagonalization with overlap
     ethr =  1.00E-06,  avg # of iterations =  1.0

     Threshold (ethr) on eigenvalues was too large:
     Diagonalizing with lowered threshold

     Davidson diagonalization with overlap
     ethr =  3.66E-11,  avg # of iterations =  1.0

     total cpu time spent up to now is        0.8 secs

     End of self-consistent calculation

          k = 0.0000 0.0000 0.0000 (   113 PWs)   bands (ev):

    -4.7638   7.2761   7.2761   7.6358

     highest occupied level (ev):     7.6358

!    total energy              =     -14.44793970 Ry
     Harris-Foulkes estimate   =     -14.44793970 Ry
     estimated scf accuracy    <          3.0E-09 Ry

     convergence has been achieved in   1 iterations

     Forces acting on atoms (Ry/au):

     atom    1 type  1   force =     0.02243229    0.02243226    0.02243226
     atom    2 type  1   force =    -0.02243229   -0.02243226   -0.02243226

     Total force =     0.054948     Total SCF correction =     0.000016

     Entering Dynamics:    iteration =    25
                           time      =   0.0242 pico-seconds


ATOMIC_POSITIONS (alat)
Si      -0.127011762  -0.127011761  -0.127011761
Si       0.127011762   0.127011761   0.127011761


     kinetic energy (Ekin) =     0.00000087 Ry
     temperature           =     0.09113473 K 
     Ekin + Etot (const)   =   -14.44793883 Ry

     Linear momentum :    0.0000000000    0.0000000000    0.0000000000

     Writing output data file pwscf.save

     second order wave-functions extrapolation
     NEW-OLD atomic charge density approx. for the potential

     total cpu time spent up to now is        0.8 secs

     per-process dynamical memory:     2.6 Mb

     Self-consistent Calculation

     iteration #  1     ecut=     8.00 Ry     beta=0.70
     Davidson diagonalization with overlap
     ethr =  1.00E-06,  avg # of iterations =  1.0

     Threshold (ethr) on eigenvalues was too large:
     Diagonalizing with lowered threshold

     Davidson diagonalization with overlap
     ethr =  2.22E-10,  avg # of iterations =  1.0

     total cpu time spent up to now is        0.8 secs

     total energy              =     -14.44797214 Ry
     Harris-Foulkes estimate   =     -14.44797214 Ry
     estimated scf accuracy    <       0.00000002 Ry

     iteration #  2     ecut=     8.00 Ry     beta=0.70
     Davidson diagonalization with overlap
     ethr =  2.27E-10,  avg # of iterations =  2.0

     total cpu time spent up to now is        0.9 secs

     End of self-consistent calculation

          k = 0.0000 0.0000 0.0000 (   113 PWs)   bands (ev):

    -4.7638   7.2775   7.2775   7.6331

     highest occupied level (ev):     7.6331

!    total energy              =     -14.44797214 Ry
     Harris-Foulkes estimate   =     -14.44797214 Ry
     estimated scf accuracy    <          1.1E-09 Ry

     convergence has been achieved in   2 iterations

     Forces acting on atoms (Ry/au):

     atom    1 type  1   force =     0.02217353    0.02217351    0.02217352
     atom    2 type  1   force =    -0.02217353   -0.02217351   -0.02217352

     Total force =     0.054314     Total SCF correction =     0.000004

     Entering Dynamics:    iteration =    26
                           time      =   0.0252 pico-seconds


ATOMIC_POSITIONS (alat)
Si      -0.126953913  -0.126953913  -0.126953914
Si       0.126953913   0.126953913   0.126953914


     kinetic energy (Ekin) =     0.00003317 Ry
     temperature           =     3.49139514 K 
     Ekin + Etot (const)   =   -14.44793897 Ry

     Linear momentum :    0.0000000000    0.0000000000    0.0000000000

     Writing output data file pwscf.save

     second order wave-functions extrapolation
     NEW-OLD atomic charge density approx. for the potential

     total cpu time spent up to now is        0.9 secs

     per-process dynamical memory:     2.6 Mb

     Self-consistent Calculation

     iteration #  1     ecut=     8.00 Ry     beta=0.70
     Davidson diagonalization with overlap
     ethr =  1.00E-06,  avg # of iterations =  1.0

     Threshold (ethr) on eigenvalues was too large:
     Diagonalizing with lowered threshold

     Davidson diagonalization with overlap
     ethr =  1.15E-09,  avg # of iterations =  1.0

     total cpu time spent up to now is        0.9 secs

     total energy              =     -14.44804939 Ry
     Harris-Foulkes estimate   =     -14.44804939 Ry
     estimated scf accuracy    <       0.00000009 Ry

     iteration #  2     ecut=     8.00 Ry     beta=0.70
     Davidson diagonalization with overlap
     ethr =  1.18E-09,  avg # of iterations =  2.0

     total cpu time spent up to now is        0.9 secs

     End of self-consistent calculation

          k = 0.0000 0.0000 0.0000 (   113 PWs)   bands (ev):

    -4.7636   7.2808   7.2808   7.6261

     highest occupied level (ev):     7.6261

!    total energy              =     -14.44804940 Ry
     Harris-Foulkes estimate   =     -14.44804939 Ry
     estimated scf accuracy    <          7.0E-09 Ry

     convergence has been achieved in   2 iterations

     Forces acting on atoms (Ry/au):

     atom    1 type  1   force =     0.02154877    0.02154878    0.02154879
     atom    2 type  1   force =    -0.02154877   -0.02154878   -0.02154879

     Total force =     0.052784     Total SCF correction =     0.000012

     Entering Dynamics:    iteration =    27
                           time      =   0.0261 pico-seconds


ATOMIC_POSITIONS (alat)
Si      -0.126862987  -0.126862990  -0.126862991
Si       0.126862987   0.126862990   0.126862991


     kinetic energy (Ekin) =     0.00011009 Ry
     temperature           =    11.58816860 K 
     Ekin + Etot (const)   =   -14.44793930 Ry

     Linear momentum :    0.0000000000    0.0000000000    0.0000000000

     Writing output data file pwscf.save

     second order wave-functions extrapolation
     NEW-OLD atomic charge density approx. for the potential

     total cpu time spent up to now is        0.9 secs

     per-process dynamical memory:     2.6 Mb

     Self-consistent Calculation

     iteration #  1     ecut=     8.00 Ry     beta=0.70
     Davidson diagonalization with overlap
     ethr =  1.00E-06,  avg # of iterations =  1.0

     Threshold (ethr) on eigenvalues was too large:
     Diagonalizing with lowered threshold

     Davidson diagonalization with overlap
     ethr =  2.83E-09,  avg # of iterations =  1.0

     total cpu time spent up to now is        0.9 secs

     total energy              =     -14.44816636 Ry
     Harris-Foulkes estimate   =     -14.44816636 Ry
     estimated scf accuracy    <       0.00000023 Ry

     iteration #  2     ecut=     8.00 Ry     beta=0.70
     Davidson diagonalization with overlap
     ethr =  2.90E-09,  avg # of iterations =  2.0

     total cpu time spent up to now is        0.9 secs

     total energy              =     -14.44816639 Ry
     Harris-Foulkes estimate   =     -14.44816638 Ry
     estimated scf accuracy    <       0.00000002 Ry

     iteration #  3     ecut=     8.00 Ry     beta=0.70
     Davidson diagonalization with overlap
     ethr =  2.11E-10,  avg # of iterations =  1.0

     total cpu time spent up to now is        0.9 secs

     End of self-consistent calculation

          k = 0.0000 0.0000 0.0000 (   113 PWs)   bands (ev):

    -4.7634   7.2861   7.2861   7.6153

     highest occupied level (ev):     7.6153

!    total energy              =     -14.44816639 Ry
     Harris-Foulkes estimate   =     -14.44816639 Ry
     estimated scf accuracy    <          4.6E-10 Ry

     convergence has been achieved in   3 iterations

     Forces acting on atoms (Ry/au):

     atom    1 type  1   force =     0.02057372    0.02057376    0.02057377
     atom    2 type  1   force =    -0.02057372   -0.02057376   -0.02057377

     Total force =     0.050395     Total SCF correction =     0.000006

     Entering Dynamics:    iteration =    28
                           time      =   0.0271 pico-seconds


ATOMIC_POSITIONS (alat)
Si      -0.126740482  -0.126740487  -0.126740488
Si       0.126740482   0.126740487   0.126740488


     kinetic energy (Ekin) =     0.00022658 Ry
     temperature           =    23.84921053 K 
     Ekin + Etot (const)   =   -14.44793981 Ry

     Linear momentum :    0.0000000000    0.0000000000    0.0000000000

     Writing output data file pwscf.save

     second order wave-functions extrapolation
     NEW-OLD atomic charge density approx. for the potential

     total cpu time spent up to now is        1.0 secs

     per-process dynamical memory:     2.6 Mb

     Self-consistent Calculation

     iteration #  1     ecut=     8.00 Ry     beta=0.70
     Davidson diagonalization with overlap
     ethr =  1.00E-06,  avg # of iterations =  1.0

     Threshold (ethr) on eigenvalues was too large:
     Diagonalizing with lowered threshold

     Davidson diagonalization with overlap
     ethr =  5.17E-09,  avg # of iterations =  1.0

     total cpu time spent up to now is        1.0 secs

     total energy              =     -14.44831536 Ry
     Harris-Foulkes estimate   =     -14.44831536 Ry
     estimated scf accuracy    <       0.00000042 Ry

     iteration #  2     ecut=     8.00 Ry     beta=0.70
     Davidson diagonalization with overlap
     ethr =  5.28E-09,  avg # of iterations =  2.0

     total cpu time spent up to now is        1.0 secs

     total energy              =     -14.44831541 Ry
     Harris-Foulkes estimate   =     -14.44831539 Ry
     estimated scf accuracy    <       0.00000003 Ry

     iteration #  3     ecut=     8.00 Ry     beta=0.70
     Davidson diagonalization with overlap
     ethr =  3.83E-10,  avg # of iterations =  1.0

     total cpu time spent up to now is        1.0 secs

     End of self-consistent calculation

          k = 0.0000 0.0000 0.0000 (   113 PWs)   bands (ev):

    -4.7631   7.2932   7.2932   7.6007

     highest occupied level (ev):     7.6007

!    total energy              =     -14.44831541 Ry
     Harris-Foulkes estimate   =     -14.44831541 Ry
     estimated scf accuracy    <          8.5E-10 Ry

     convergence has been achieved in   3 iterations

     Forces acting on atoms (Ry/au):

     atom    1 type  1   force =     0.01925096    0.01925102    0.01925103
     atom    2 type  1   force =    -0.01925096   -0.01925102   -0.01925103

     Total force =     0.047155     Total SCF correction =     0.000008

     Entering Dynamics:    iteration =    29
                           time      =   0.0281 pico-seconds


ATOMIC_POSITIONS (alat)
Si      -0.126588428  -0.126588435  -0.126588436
Si       0.126588428   0.126588435   0.126588436


     kinetic energy (Ekin) =     0.00037496 Ry
     temperature           =    39.46714577 K 
     Ekin + Etot (const)   =   -14.44794045 Ry

     Linear momentum :    0.0000000000    0.0000000000    0.0000000000

     Writing output data file pwscf.save

     second order wave-functions extrapolation
     NEW-OLD atomic charge density approx. for the potential

     total cpu time spent up to now is        1.0 secs

     per-process dynamical memory:     2.6 Mb

     Self-consistent Calculation

     iteration #  1     ecut=     8.00 Ry     beta=0.70
     Davidson diagonalization with overlap
     ethr =  1.00E-06,  avg # of iterations =  1.0

     Threshold (ethr) on eigenvalues was too large:
     Diagonalizing with lowered threshold

     Davidson diagonalization with overlap
     ethr =  7.95E-09,  avg # of iterations =  1.0

     total cpu time spent up to now is        1.0 secs

     total energy              =     -14.44848652 Ry
     Harris-Foulkes estimate   =     -14.44848652 Ry
     estimated scf accuracy    <       0.00000065 Ry

     iteration #  2     ecut=     8.00 Ry     beta=0.70
     Davidson diagonalization with overlap
[...]

     total energy              =     -14.44819154 Ry
     Harris-Foulkes estimate   =     -14.44819151 Ry
     estimated scf accuracy    <       0.00000044 Ry

     iteration #  2     ecut=     8.00 Ry     beta=0.70
     Davidson diagonalization with overlap
     ethr =  5.55E-09,  avg # of iterations =  2.0

     total cpu time spent up to now is        3.0 secs

     total energy              =     -14.44819158 Ry
     Harris-Foulkes estimate   =     -14.44819156 Ry
     estimated scf accuracy    <       0.00000003 Ry

     iteration #  3     ecut=     8.00 Ry     beta=0.70
     Davidson diagonalization with overlap
     ethr =  4.33E-10,  avg # of iterations =  1.0

     total cpu time spent up to now is        3.0 secs

     End of self-consistent calculation

          k = 0.0000 0.0000 0.0000 (   113 PWs)   bands (ev):

    -4.7634   7.1828   7.5022   7.5022

     highest occupied level (ev):     7.5022

!    total energy              =     -14.44819158 Ry
     Harris-Foulkes estimate   =     -14.44819158 Ry
     estimated scf accuracy    <          6.9E-10 Ry

     convergence has been achieved in   3 iterations

     Forces acting on atoms (Ry/au):

     atom    1 type  1   force =    -0.02105757   -0.02105747   -0.02105746
     atom    2 type  1   force =     0.02105757    0.02105747    0.02105746

     Total force =     0.051580     Total SCF correction =     0.000008

     Entering Dynamics:    iteration =    93
                           time      =   0.0900 pico-seconds


ATOMIC_POSITIONS (alat)
Si      -0.123092276  -0.123092284  -0.123092284
Si       0.123092276   0.123092284   0.123092284


     kinetic energy (Ekin) =     0.00024776 Ry
     temperature           =    26.07848256 K 
     Ekin + Etot (const)   =   -14.44794382 Ry

     Linear momentum :    0.0000000000    0.0000000000    0.0000000000

     Writing output data file pwscf.save

     second order wave-functions extrapolation
     NEW-OLD atomic charge density approx. for the potential

     total cpu time spent up to now is        3.0 secs

     per-process dynamical memory:     2.6 Mb

     Self-consistent Calculation

     iteration #  1     ecut=     8.00 Ry     beta=0.70
     Davidson diagonalization with overlap
     ethr =  1.00E-06,  avg # of iterations =  1.0

     Threshold (ethr) on eigenvalues was too large:
     Diagonalizing with lowered threshold

     Davidson diagonalization with overlap
     ethr =  3.03E-09,  avg # of iterations =  1.0

     total cpu time spent up to now is        3.0 secs

     total energy              =     -14.44806552 Ry
     Harris-Foulkes estimate   =     -14.44806550 Ry
     estimated scf accuracy    <       0.00000025 Ry

     iteration #  2     ecut=     8.00 Ry     beta=0.70
     Davidson diagonalization with overlap
     ethr =  3.09E-09,  avg # of iterations =  2.0

     total cpu time spent up to now is        3.0 secs

     total energy              =     -14.44806554 Ry
     Harris-Foulkes estimate   =     -14.44806553 Ry
     estimated scf accuracy    <       0.00000002 Ry

     iteration #  3     ecut=     8.00 Ry     beta=0.70
     Davidson diagonalization with overlap
     ethr =  2.42E-10,  avg # of iterations =  1.0

     total cpu time spent up to now is        3.0 secs

     End of self-consistent calculation

          k = 0.0000 0.0000 0.0000 (   113 PWs)   bands (ev):

    -4.7637   7.1717   7.5079   7.5079

     highest occupied level (ev):     7.5079

!    total energy              =     -14.44806554 Ry
     Harris-Foulkes estimate   =     -14.44806554 Ry
     estimated scf accuracy    <          3.8E-10 Ry

     convergence has been achieved in   3 iterations

     Forces acting on atoms (Ry/au):

     atom    1 type  1   force =    -0.02219592   -0.02219583   -0.02219583
     atom    2 type  1   force =     0.02219592    0.02219583    0.02219583

     Total force =     0.054369     Total SCF correction =     0.000006

     Entering Dynamics:    iteration =    94
                           time      =   0.0910 pico-seconds


ATOMIC_POSITIONS (alat)
Si      -0.123030918  -0.123030924  -0.123030924
Si       0.123030918   0.123030924   0.123030924


     kinetic energy (Ekin) =     0.00012228 Ry
     temperature           =    12.87063857 K 
     Ekin + Etot (const)   =   -14.44794326 Ry

     Linear momentum :    0.0000000000    0.0000000000    0.0000000000

     Writing output data file pwscf.save

     second order wave-functions extrapolation
     NEW-OLD atomic charge density approx. for the potential

     total cpu time spent up to now is        3.1 secs

     per-process dynamical memory:     2.6 Mb

     Self-consistent Calculation

     iteration #  1     ecut=     8.00 Ry     beta=0.70
     Davidson diagonalization with overlap
     ethr =  1.00E-06,  avg # of iterations =  1.0

     Threshold (ethr) on eigenvalues was too large:
     Diagonalizing with lowered threshold

     Davidson diagonalization with overlap
     ethr =  1.25E-09,  avg # of iterations =  1.0

     total cpu time spent up to now is        3.1 secs

     total energy              =     -14.44798098 Ry
     Harris-Foulkes estimate   =     -14.44798097 Ry
     estimated scf accuracy    <       0.00000010 Ry

     iteration #  2     ecut=     8.00 Ry     beta=0.70
     Davidson diagonalization with overlap
     ethr =  1.28E-09,  avg # of iterations =  2.0

     total cpu time spent up to now is        3.1 secs

     End of self-consistent calculation

          k = 0.0000 0.0000 0.0000 (   113 PWs)   bands (ev):

    -4.7638   7.1646   7.5116   7.5116

     highest occupied level (ev):     7.5116

!    total energy              =     -14.44798099 Ry
     Harris-Foulkes estimate   =     -14.44798098 Ry
     estimated scf accuracy    <          8.0E-09 Ry

     convergence has been achieved in   2 iterations

     Forces acting on atoms (Ry/au):

     atom    1 type  1   force =    -0.02293329   -0.02293322   -0.02293322
     atom    2 type  1   force =     0.02293329    0.02293322    0.02293322

     Total force =     0.056175     Total SCF correction =     0.000010

     Entering Dynamics:    iteration =    95
                           time      =   0.0919 pico-seconds


ATOMIC_POSITIONS (alat)
Si      -0.123004761  -0.123004765  -0.123004765
Si       0.123004761   0.123004765   0.123004765


     kinetic energy (Ekin) =     0.00003810 Ry
     temperature           =     4.01018661 K 
     Ekin + Etot (const)   =   -14.44794289 Ry

     Linear momentum :    0.0000000000    0.0000000000    0.0000000000

     Writing output data file pwscf.save

     second order wave-functions extrapolation
     NEW-OLD atomic charge density approx. for the potential

     total cpu time spent up to now is        3.1 secs

     per-process dynamical memory:     2.6 Mb

     Self-consistent Calculation

     iteration #  1     ecut=     8.00 Ry     beta=0.70
     Davidson diagonalization with overlap
     ethr =  1.00E-06,  avg # of iterations =  1.0

     Threshold (ethr) on eigenvalues was too large:
     Diagonalizing with lowered threshold

     Davidson diagonalization with overlap
     ethr =  2.21E-10,  avg # of iterations =  1.0

     total cpu time spent up to now is        3.1 secs

     total energy              =     -14.44794410 Ry
     Harris-Foulkes estimate   =     -14.44794410 Ry
     estimated scf accuracy    <       0.00000002 Ry

     iteration #  2     ecut=     8.00 Ry     beta=0.70
     Davidson diagonalization with overlap
     ethr =  2.26E-10,  avg # of iterations =  2.0

     total cpu time spent up to now is        3.1 secs

     End of self-consistent calculation

          k = 0.0000 0.0000 0.0000 (   113 PWs)   bands (ev):

    -4.7639   7.1616   7.5131   7.5131

     highest occupied level (ev):     7.5131

!    total energy              =     -14.44794411 Ry
     Harris-Foulkes estimate   =     -14.44794411 Ry
     estimated scf accuracy    <          1.5E-09 Ry

     convergence has been achieved in   2 iterations

     Forces acting on atoms (Ry/au):

     atom    1 type  1   force =    -0.02324355   -0.02324351   -0.02324351
     atom    2 type  1   force =     0.02324355    0.02324351    0.02324351

     Total force =     0.056935     Total SCF correction =     0.000005

     Entering Dynamics:    iteration =    96
                           time      =   0.0929 pico-seconds


ATOMIC_POSITIONS (alat)
Si      -0.123014282  -0.123014283  -0.123014283
Si       0.123014282   0.123014283   0.123014283


     kinetic energy (Ekin) =     0.00000138 Ry
     temperature           =     0.14495290 K 
     Ekin + Etot (const)   =   -14.44794273 Ry

     Linear momentum :    0.0000000000    0.0000000000    0.0000000000

     Writing output data file pwscf.save

     second order wave-functions extrapolation
     NEW-OLD atomic charge density approx. for the potential

     total cpu time spent up to now is        3.1 secs

     per-process dynamical memory:     2.6 Mb

     Self-consistent Calculation

     iteration #  1     ecut=     8.00 Ry     beta=0.70
     Davidson diagonalization with overlap
     ethr =  1.00E-06,  avg # of iterations =  1.0

     Threshold (ethr) on eigenvalues was too large:
     Diagonalizing with lowered threshold

     Davidson diagonalization with overlap
     ethr =  3.13E-11,  avg # of iterations =  2.0

     total cpu time spent up to now is        3.1 secs

     End of self-consistent calculation

          k = 0.0000 0.0000 0.0000 (   113 PWs)   bands (ev):

    -4.7639   7.1626   7.5126   7.5126

     highest occupied level (ev):     7.5126

!    total energy              =     -14.44795759 Ry
     Harris-Foulkes estimate   =     -14.44795759 Ry
     estimated scf accuracy    <          2.6E-09 Ry

     convergence has been achieved in   1 iterations

     Forces acting on atoms (Ry/au):

     atom    1 type  1   force =    -0.02312586   -0.02312584   -0.02312585
     atom    2 type  1   force =     0.02312586    0.02312584    0.02312585

     Total force =     0.056647     Total SCF correction =     0.000018

     Entering Dynamics:    iteration =    97
                           time      =   0.0939 pico-seconds


ATOMIC_POSITIONS (alat)
Si      -0.123059299  -0.123059299  -0.123059298
Si       0.123059299   0.123059299   0.123059298


     kinetic energy (Ekin) =     0.00001479 Ry
     temperature           =     1.55714484 K 
     Ekin + Etot (const)   =   -14.44794279 Ry

     Linear momentum :    0.0000000000    0.0000000000    0.0000000000

     Writing output data file pwscf.save

     second order wave-functions extrapolation
     NEW-OLD atomic charge density approx. for the potential

     total cpu time spent up to now is        3.1 secs

     per-process dynamical memory:     2.6 Mb

     Self-consistent Calculation

     iteration #  1     ecut=     8.00 Ry     beta=0.70
     Davidson diagonalization with overlap
     ethr =  1.00E-06,  avg # of iterations =  1.0

     Threshold (ethr) on eigenvalues was too large:
     Diagonalizing with lowered threshold

     Davidson diagonalization with overlap
     ethr =  6.97E-10,  avg # of iterations =  1.0

     total cpu time spent up to now is        3.1 secs

     total energy              =     -14.44802043 Ry
     Harris-Foulkes estimate   =     -14.44802042 Ry
     estimated scf accuracy    <       0.00000005 Ry

     iteration #  2     ecut=     8.00 Ry     beta=0.70
     Davidson diagonalization with overlap
     ethr =  6.72E-10,  avg # of iterations =  2.0

     total cpu time spent up to now is        3.1 secs

     End of self-consistent calculation

          k = 0.0000 0.0000 0.0000 (   113 PWs)   bands (ev):

    -4.7638   7.1680   7.5098   7.5098

     highest occupied level (ev):     7.5098

!    total energy              =     -14.44802043 Ry
     Harris-Foulkes estimate   =     -14.44802043 Ry
     estimated scf accuracy    <          4.8E-09 Ry

     convergence has been achieved in   2 iterations

     Forces acting on atoms (Ry/au):

     atom    1 type  1   force =    -0.02258273   -0.02258274   -0.02258274
     atom    2 type  1   force =     0.02258273    0.02258274    0.02258274

     Total force =     0.055316     Total SCF correction =     0.000015

     Entering Dynamics:    iteration =    98
                           time      =   0.0948 pico-seconds


ATOMIC_POSITIONS (alat)
Si      -0.123138980  -0.123138977  -0.123138977
Si       0.123138980   0.123138977   0.123138977


     kinetic energy (Ekin) =     0.00007734 Ry
     temperature           =     8.14092643 K 
     Ekin + Etot (const)   =   -14.44794309 Ry

     Linear momentum :    0.0000000000    0.0000000000    0.0000000000

     Writing output data file pwscf.save

     second order wave-functions extrapolation
     NEW-OLD atomic charge density approx. for the potential

     total cpu time spent up to now is        3.2 secs

     per-process dynamical memory:     2.6 Mb

     Self-consistent Calculation

     iteration #  1     ecut=     8.00 Ry     beta=0.70
     Davidson diagonalization with overlap
     ethr =  1.00E-06,  avg # of iterations =  1.0

     Threshold (ethr) on eigenvalues was too large:
     Diagonalizing with lowered threshold

     Davidson diagonalization with overlap
     ethr =  2.11E-09,  avg # of iterations =  2.0

     total cpu time spent up to now is        3.2 secs

     total energy              =     -14.44812803 Ry
     Harris-Foulkes estimate   =     -14.44812802 Ry
     estimated scf accuracy    <       0.00000018 Ry

     iteration #  2     ecut=     8.00 Ry     beta=0.70
     Davidson diagonalization with overlap
     ethr =  2.20E-09,  avg # of iterations =  2.0

     total cpu time spent up to now is        3.2 secs

     total energy              =     -14.44812805 Ry
     Harris-Foulkes estimate   =     -14.44812804 Ry
     estimated scf accuracy    <       0.00000001 Ry

     iteration #  3     ecut=     8.00 Ry     beta=0.70
     Davidson diagonalization with overlap
     ethr =  1.77E-10,  avg # of iterations =  1.0

     total cpu time spent up to now is        3.2 secs

     End of self-consistent calculation

          k = 0.0000 0.0000 0.0000 (   113 PWs)   bands (ev):

    -4.7636   7.1772   7.5051   7.5051

     highest occupied level (ev):     7.5051

!    total energy              =     -14.44812805 Ry
     Harris-Foulkes estimate   =     -14.44812805 Ry
     estimated scf accuracy    <          3.7E-10 Ry

     convergence has been achieved in   3 iterations

     Forces acting on atoms (Ry/au):

     atom    1 type  1   force =    -0.02163374   -0.02163377   -0.02163377
     atom    2 type  1   force =     0.02163374    0.02163377    0.02163377

     Total force =     0.052992     Total SCF correction =     0.000004

     Entering Dynamics:    iteration =    99
                           time      =   0.0958 pico-seconds


ATOMIC_POSITIONS (alat)
Si      -0.123251867  -0.123251863  -0.123251862
Si       0.123251867   0.123251863   0.123251862


     kinetic energy (Ekin) =     0.00018445 Ry
     temperature           =    19.41460290 K 
     Ekin + Etot (const)   =   -14.44794360 Ry

     Linear momentum :    0.0000000000    0.0000000000    0.0000000000

     Writing output data file pwscf.save

     second order wave-functions extrapolation
     NEW-OLD atomic charge density approx. for the potential

     total cpu time spent up to now is        3.2 secs

     per-process dynamical memory:     2.6 Mb

     Self-consistent Calculation

     iteration #  1     ecut=     8.00 Ry     beta=0.70
     Davidson diagonalization with overlap
     ethr =  1.00E-06,  avg # of iterations =  1.0

     Threshold (ethr) on eigenvalues was too large:
     Diagonalizing with lowered threshold

     Davidson diagonalization with overlap
     ethr =  4.25E-09,  avg # of iterations =  1.0

     total cpu time spent up to now is        3.2 secs

     total energy              =     -14.44827255 Ry
     Harris-Foulkes estimate   =     -14.44827253 Ry
     estimated scf accuracy    <       0.00000035 Ry

     iteration #  2     ecut=     8.00 Ry     beta=0.70
     Davidson diagonalization with overlap
     ethr =  4.34E-09,  avg # of iterations =  2.0

     total cpu time spent up to now is        3.2 secs

     total energy              =     -14.44827258 Ry
     Harris-Foulkes estimate   =     -14.44827257 Ry
     estimated scf accuracy    <       0.00000003 Ry

     iteration #  3     ecut=     8.00 Ry     beta=0.70
     Davidson diagonalization with overlap
     ethr =  3.38E-10,  avg # of iterations =  1.0

     total cpu time spent up to now is        3.2 secs

     End of self-consistent calculation

          k = 0.0000 0.0000 0.0000 (   113 PWs)   bands (ev):

    -4.7633   7.1904   7.4983   7.4983

     highest occupied level (ev):     7.4983

!    total energy              =     -14.44827258 Ry
     Harris-Foulkes estimate   =     -14.44827258 Ry
     estimated scf accuracy    <          5.4E-10 Ry

     convergence has been achieved in   3 iterations

     Forces acting on atoms (Ry/au):

     atom    1 type  1   force =    -0.02028727   -0.02028732   -0.02028733
     atom    2 type  1   force =     0.02028727    0.02028732    0.02028733

     Total force =     0.049694     Total SCF correction =     0.000007

     Entering Dynamics:    iteration =   100
                           time      =   0.0968 pico-seconds


ATOMIC_POSITIONS (alat)
Si      -0.123395894  -0.123395888  -0.123395887
Si       0.123395894   0.123395888   0.123395887


     kinetic energy (Ekin) =     0.00032831 Ry
     temperature           =    34.55735029 K 
     Ekin + Etot (const)   =   -14.44794427 Ry

     Linear momentum :    0.0000000000    0.0000000000    0.0000000000

     The maximum number of steps has been reached.

     End of molecular dynamics calculation

     diffusion coefficients :
     atom     1   D =       0.00000000 cm^2/s
     atom     2   D =       0.00000000 cm^2/s

     < D > =       0.00000000 cm^2/s

     Writing output data file pwscf.save
 
     init_run     :      0.01s CPU      0.01s WALL (       1 calls)
     electrons    :      0.60s CPU      0.68s WALL (     100 calls)
     update_pot   :      0.21s CPU      0.23s WALL (      99 calls)
     forces       :      0.04s CPU      0.05s WALL (     100 calls)

     Called by init_run:
     wfcinit      :      0.00s CPU      0.00s WALL (       1 calls)
     potinit      :      0.00s CPU      0.00s WALL (       1 calls)

     Called by electrons:
     c_bands      :      0.29s CPU      0.33s WALL (     386 calls)
     sum_band     :      0.07s CPU      0.08s WALL (     386 calls)
     v_of_rho     :      0.07s CPU      0.08s WALL (     387 calls)
     mix_rho      :      0.03s CPU      0.03s WALL (     386 calls)

     Called by c_bands:
     init_us_2    :      0.01s CPU      0.01s WALL (     773 calls)
     cegterg      :      0.28s CPU      0.30s WALL (     386 calls)

     Called by sum_band:

     Called by *egterg:
     h_psi        :      0.19s CPU      0.21s WALL (     946 calls)
     g_psi        :      0.00s CPU      0.00s WALL (     559 calls)
     cdiaghg      :      0.05s CPU      0.05s WALL (     747 calls)

     Called by h_psi:
     add_vuspsi   :      0.01s CPU      0.01s WALL (     946 calls)

     General routines
     calbec       :      0.02s CPU      0.02s WALL (    1444 calls)
     fft          :      0.06s CPU      0.07s WALL (    1945 calls)
     fftw         :      0.19s CPU      0.21s WALL (    8242 calls)
     davcio       :      0.01s CPU      0.01s WALL (    1301 calls)
 
     Parallel routines
     fft_scatter  :      0.07s CPU      0.07s WALL (   10187 calls)
 
     PWSCF        :     2.93s CPU         3.24s WALL

 
   This run was terminated on:  15:34: 5  21Jul2016            

=------------------------------------------------------------------------------=
   JOB DONE.
=------------------------------------------------------------------------------=
