
     Program PWSCF v.5.4.0 (svn rev. 12496M) starts on 15Jun2016 at 11:19:29 

     This program is part of the open-source Quantum ESPRESSO suite
     for quantum simulation of materials; please cite
         "P. Giannozzi et al., J. Phys.:Condens. Matter 21 395502 (2009);
          URL http://www.quantum-espresso.org", 
     in publications or presentations arising from this work. More details at
     http://www.quantum-espresso.org/quote
 
           HOST :    @host@
           ARCH :    x86_64
             CC :    cc
            CPP :    cpp
            F90 :    mpif90
            F77 :    gfortran
         DFLAGS :    -D__GFORTRAN -D__STD_F95 -D__DFTI -D__MPI -D__PARA
      BLAS LIBS :    -lmkl_gf_lp64  -lmkl_sequential -lmkl_core
    LAPACK LIBS :    
       FFT LIBS :    
      MASS LIBS :    

     Parallel version (MPI), running on     2 processors
     R & G space division:  proc/nbgrp/npool/nimage =       2
     Waiting for input...
     Reading input from standard input
     Message from routine read_cards :
     DEPRECATED: no units specified in ATOMIC_POSITIONS card
     Message from routine read_cards :
     ATOMIC_POSITIONS: units set to alat

     Current dimensions of program PWSCF are:
     Max number of different atomic species (ntypx) = 10
     Max number of k-points (npk) =  40000
     Max angular momentum in pseudopotentials (lmaxx) =  3

     Subspace diagonalization in iterative solution of the eigenvalue problem:
     a serial algorithm will be used

     Found symmetry operation: I + ( -0.5000 -0.5000  0.0000)
     This is a supercell, fractional translations are disabled
 
     Parallelization info
     --------------------
     sticks:   dense  smooth     PW     G-vecs:    dense   smooth      PW
     Min         130     130     34                 1618     1618     218
     Max         131     131     35                 1621     1621     219
     Sum         261     261     69                 3239     3239     437
 


     bravais-lattice index     =            1
     lattice parameter (alat)  =      10.1800  a.u.
     unit-cell volume          =    1054.9778 (a.u.)^3
     number of atoms/cell      =            8
     number of atomic types    =            1
     number of electrons       =        32.00
     number of Kohn-Sham states=           16
     kinetic-energy cutoff     =       8.0000  Ry
     charge density cutoff     =      32.0000  Ry
     convergence threshold     =      1.0E-08
     mixing beta               =       0.7000
     number of iterations used =            8  plain     mixing
     Exchange-correlation      =  SLA  PZ   NOGX NOGC ( 1  1  0  0 0 0)
     nstep                     =          100


     celldm(1)=  10.180000  celldm(2)=   0.000000  celldm(3)=   0.000000
     celldm(4)=   0.000000  celldm(5)=   0.000000  celldm(6)=   0.000000

     crystal axes: (cart. coord. in units of alat)
               a(1) = (   1.000000   0.000000   0.000000 )  
               a(2) = (   0.000000   1.000000   0.000000 )  
               a(3) = (   0.000000   0.000000   1.000000 )  

     reciprocal axes: (cart. coord. in units 2 pi/alat)
               b(1) = (  1.000000  0.000000  0.000000 )  
               b(2) = (  0.000000  1.000000  0.000000 )  
               b(3) = (  0.000000  0.000000  1.000000 )  


     PseudoPot. # 1 for Si read from file:
     /home/nvarini/espresso_hdf5/espresso/pseudo/Si.pz-vbc.UPF
     MD5 check sum: 6dfa03ddd5817404712e03e4d12deb78
     Pseudo is Norm-conserving, Zval =  4.0
     Generated by new atomic code, or converted to UPF format
     Using radial grid of  431 points,  2 beta functions with: 
                l(1) =   0
                l(2) =   1

     atomic species   valence    mass     pseudopotential
        Si             4.00    28.08600     Si( 1.00)

     No symmetry found



   Cartesian axes

     site n.     atom                  positions (alat units)
         1           Si  tau(   1) = (  -0.1230000  -0.1230000  -0.1230000  )
         2           Si  tau(   2) = (   0.3770000   0.3770000  -0.1230000  )
         3           Si  tau(   3) = (   0.3770000  -0.1230000   0.3770000  )
         4           Si  tau(   4) = (  -0.1230000   0.3770000   0.3770000  )
         5           Si  tau(   5) = (   0.1230000   0.1230000   0.1230000  )
         6           Si  tau(   6) = (   0.6230000   0.6230000   0.1230000  )
         7           Si  tau(   7) = (   0.6230000   0.1230000   0.6230000  )
         8           Si  tau(   8) = (   0.1230000   0.6230000   0.6230000  )

     number of k points=     1
                       cart. coord. in units 2pi/alat
        k(    1) = (   0.0000000   0.0000000   0.0000000), wk =   2.0000000

     Dense  grid:     3239 G-vectors     FFT dimensions: (  20,  20,  20)

     Largest allocated arrays     est. size (Mb)     dimensions
        Kohn-Sham Wavefunctions         0.05 Mb     (     218,   16)
        NL pseudopotentials             0.11 Mb     (     218,   32)
        Each V/rho on FFT grid          0.06 Mb     (    4000)
        Each G-vector array             0.01 Mb     (    1621)
        G-vector shells                 0.00 Mb     (      73)
     Largest temporary arrays     est. size (Mb)     dimensions
        Auxiliary wavefunctions         0.21 Mb     (     218,   64)
        Each subspace H/S matrix        0.06 Mb     (      64,   64)
        Each <psi_i|beta_j> matrix      0.01 Mb     (      32,   16)
        Arrays for rho mixing           0.49 Mb     (    4000,    8)

     Initial potential from superposition of free atoms

     starting charge   31.99603, renormalised to   32.00000
     Starting wfc are   32 randomized atomic wfcs

     total cpu time spent up to now is        0.0 secs

     per-process dynamical memory:     2.5 Mb

     Self-consistent Calculation

     iteration #  1     ecut=     8.00 Ry     beta=0.70
     Davidson diagonalization with overlap
     ethr =  1.00E-02,  avg # of iterations =  2.0

     total cpu time spent up to now is        0.0 secs

     total energy              =     -62.14824416 Ry
     Harris-Foulkes estimate   =     -62.29592846 Ry
     estimated scf accuracy    <       0.43484407 Ry

     iteration #  2     ecut=     8.00 Ry     beta=0.70
     Davidson diagonalization with overlap
     ethr =  1.36E-03,  avg # of iterations =  1.0

     total cpu time spent up to now is        0.1 secs

     total energy              =     -62.17404822 Ry
     Harris-Foulkes estimate   =     -62.17577179 Ry
     estimated scf accuracy    <       0.01656738 Ry

     iteration #  3     ecut=     8.00 Ry     beta=0.70
     Davidson diagonalization with overlap
     ethr =  5.18E-05,  avg # of iterations =  2.0

     total cpu time spent up to now is        0.1 secs

     total energy              =     -62.17573157 Ry
     Harris-Foulkes estimate   =     -62.17577687 Ry
     estimated scf accuracy    <       0.00038141 Ry

     iteration #  4     ecut=     8.00 Ry     beta=0.70
     Davidson diagonalization with overlap
     ethr =  1.19E-06,  avg # of iterations =  2.0

     total cpu time spent up to now is        0.1 secs

     total energy              =     -62.17577996 Ry
     Harris-Foulkes estimate   =     -62.17578434 Ry
     estimated scf accuracy    <       0.00001101 Ry

     iteration #  5     ecut=     8.00 Ry     beta=0.70
     Davidson diagonalization with overlap
     ethr =  3.44E-08,  avg # of iterations =  6.0

     total cpu time spent up to now is        0.1 secs

     total energy              =     -62.17578679 Ry
     Harris-Foulkes estimate   =     -62.17578745 Ry
     estimated scf accuracy    <       0.00000207 Ry

     iteration #  6     ecut=     8.00 Ry     beta=0.70
     Davidson diagonalization with overlap
     ethr =  6.47E-09,  avg # of iterations =  5.0

     total cpu time spent up to now is        0.1 secs

     total energy              =     -62.17578708 Ry
     Harris-Foulkes estimate   =     -62.17578727 Ry
     estimated scf accuracy    <       0.00000045 Ry

     iteration #  7     ecut=     8.00 Ry     beta=0.70
     Davidson diagonalization with overlap
     ethr =  1.41E-09,  avg # of iterations =  5.0

     total cpu time spent up to now is        0.1 secs

     total energy              =     -62.17578716 Ry
     Harris-Foulkes estimate   =     -62.17578722 Ry
     estimated scf accuracy    <       0.00000013 Ry

     iteration #  8     ecut=     8.00 Ry     beta=0.70
     Davidson diagonalization with overlap
     ethr =  3.92E-10,  avg # of iterations =  4.0

     total cpu time spent up to now is        0.1 secs

     total energy              =     -62.17578718 Ry
     Harris-Foulkes estimate   =     -62.17578719 Ry
     estimated scf accuracy    <       0.00000002 Ry

     iteration #  9     ecut=     8.00 Ry     beta=0.70
     Davidson diagonalization with overlap
     ethr =  6.12E-11,  avg # of iterations =  4.0

     total cpu time spent up to now is        0.1 secs

     End of self-consistent calculation

          k = 0.0000 0.0000 0.0000 (   437 PWs)   bands (ev):

    -5.2234  -1.0941  -1.0941  -1.0941  -0.9566  -0.9566  -0.9566   3.5685
     3.5685   3.5685   3.6376   3.6376   3.6376   6.4883   6.8187   6.8187

     highest occupied level (ev):     6.8187

!    total energy              =     -62.17578719 Ry
     Harris-Foulkes estimate   =     -62.17578719 Ry
     estimated scf accuracy    <          2.4E-09 Ry

     convergence has been achieved in   9 iterations

     Forces acting on atoms (Ry/au):

     atom    1 type  1   force =    -0.01508979   -0.01508473   -0.01508540
     atom    2 type  1   force =    -0.01508383   -0.01508939   -0.01508561
     atom    3 type  1   force =    -0.01508582   -0.01508091   -0.01508176
     atom    4 type  1   force =    -0.01508609   -0.01508968   -0.01509137
     atom    5 type  1   force =     0.01508541    0.01508547    0.01508169
     atom    6 type  1   force =     0.01508606    0.01508596    0.01508726
     atom    7 type  1   force =     0.01509280    0.01509085    0.01508795
     atom    8 type  1   force =     0.01508125    0.01508243    0.01508724

     Total force =     0.073907     Total SCF correction =     0.000047

     Molecular Dynamics Calculation
     mass Si               =    28.09
     Time step             =    20.00 a.u.,  0.9676 femto-seconds

     Entering Dynamics:    iteration =     1
                           time      =   0.0010 pico-seconds


ATOMIC_POSITIONS (alat)
Si      -0.123011581  -0.123011577  -0.123011578
Si       0.376988424   0.376988419  -0.123011578
Si       0.376988422  -0.123011574   0.376988425
Si      -0.123011578   0.376988419   0.376988418
Si       0.123011578   0.123011578   0.123011575
Si       0.623011578   0.623011578   0.123011579
Si       0.623011583   0.123011582   0.623011580
Si       0.123011574   0.623011575   0.623011579


     kinetic energy (Ekin) =     0.00000000 Ry
     temperature           =     0.00000000 K 
     Ekin + Etot (const)   =   -62.17578719 Ry

     Linear momentum :    0.0000000000    0.0000000000    0.0000000000

     Writing output data file pwscf.save
     NEW-OLD atomic charge density approx. for the potential

     total cpu time spent up to now is        0.2 secs

     per-process dynamical memory:     3.0 Mb

     Self-consistent Calculation

     iteration #  1     ecut=     8.00 Ry     beta=0.70
     Davidson diagonalization with overlap
     ethr =  1.00E-06,  avg # of iterations =  2.0

     Threshold (ethr) on eigenvalues was too large:
     Diagonalizing with lowered threshold

     Davidson diagonalization with overlap
     ethr =  2.12E-11,  avg # of iterations =  5.0

     total cpu time spent up to now is        0.2 secs

     total energy              =     -62.17582973 Ry
     Harris-Foulkes estimate   =     -62.17582974 Ry
     estimated scf accuracy    <       0.00000002 Ry

     iteration #  2     ecut=     8.00 Ry     beta=0.70
     Davidson diagonalization with overlap
     ethr =  6.10E-11,  avg # of iterations =  7.0

     total cpu time spent up to now is        0.2 secs

     total energy              =     -62.17582973 Ry
     Harris-Foulkes estimate   =     -62.17582974 Ry
     estimated scf accuracy    <       0.00000005 Ry

     iteration #  3     ecut=     8.00 Ry     beta=0.70
     Davidson diagonalization with overlap
     ethr =  6.10E-11,  avg # of iterations =  6.0

     total cpu time spent up to now is        0.2 secs

     End of self-consistent calculation

          k = 0.0000 0.0000 0.0000 (   437 PWs)   bands (ev):

    -5.2234  -1.0936  -1.0936  -1.0936  -0.9570  -0.9570  -0.9570   3.5687
     3.5687   3.5687   3.6374   3.6374   3.6374   6.4896   6.8180   6.8180

     highest occupied level (ev):     6.8180

!    total energy              =     -62.17582973 Ry
     Harris-Foulkes estimate   =     -62.17582973 Ry
     estimated scf accuracy    <          5.7E-10 Ry

     convergence has been achieved in   3 iterations

     Forces acting on atoms (Ry/au):

     atom    1 type  1   force =    -0.01499622   -0.01499701   -0.01499110
     atom    2 type  1   force =    -0.01499254   -0.01499312   -0.01499703
     atom    3 type  1   force =    -0.01499599   -0.01499563   -0.01499372
     atom    4 type  1   force =    -0.01499443   -0.01499333   -0.01499754
     atom    5 type  1   force =     0.01499657    0.01499412    0.01499167
     atom    6 type  1   force =     0.01499325    0.01499615    0.01499779
     atom    7 type  1   force =     0.01499606    0.01499336    0.01499386
     atom    8 type  1   force =     0.01499330    0.01499545    0.01499606

     Total force =     0.073459     Total SCF correction =     0.000023

     Entering Dynamics:    iteration =     2
                           time      =   0.0019 pico-seconds


ATOMIC_POSITIONS (alat)
Si      -0.123046180  -0.123046174  -0.123046166
Si       0.376953834   0.376953825  -0.123046175
Si       0.376953826  -0.123046166   0.376953836
Si      -0.123046172   0.376953824   0.376953815
Si       0.123046174   0.123046170   0.123046161
Si       0.623046170   0.623046174   0.123046179
Si       0.623046185   0.123046178   0.623046174
Si       0.123046163   0.623046168   0.623046176


     kinetic energy (Ekin) =     0.00004242 Ry
     temperature           =     0.63782834 K 
     Ekin + Etot (const)   =   -62.17578732 Ry

     Linear momentum :   -0.0000000000    0.0000000000    0.0000000000

     Writing output data file pwscf.save

     first order wave-functions extrapolation
     NEW-OLD atomic charge density approx. for the potential

     total cpu time spent up to now is        0.3 secs

     per-process dynamical memory:     3.2 Mb

     Self-consistent Calculation

     iteration #  1     ecut=     8.00 Ry     beta=0.70
     Davidson diagonalization with overlap
     ethr =  1.00E-06,  avg # of iterations =  1.0

     Threshold (ethr) on eigenvalues was too large:
     Diagonalizing with lowered threshold

     Davidson diagonalization with overlap
     ethr =  1.46E-10,  avg # of iterations =  4.0

     total cpu time spent up to now is        0.3 secs

     total energy              =     -62.17595532 Ry
     Harris-Foulkes estimate   =     -62.17595531 Ry
     estimated scf accuracy    <       0.00000005 Ry

     iteration #  2     ecut=     8.00 Ry     beta=0.70
     Davidson diagonalization with overlap
     ethr =  1.59E-10,  avg # of iterations =  1.0

     total cpu time spent up to now is        0.3 secs

     End of self-consistent calculation

          k = 0.0000 0.0000 0.0000 (   437 PWs)   bands (ev):

    -5.2233  -1.0923  -1.0923  -1.0923  -0.9582  -0.9581  -0.9581   3.5692
     3.5692   3.5692   3.6368   3.6369   3.6369   6.4934   6.8161   6.8161

     highest occupied level (ev):     6.8161

!    total energy              =     -62.17595532 Ry
     Harris-Foulkes estimate   =     -62.17595532 Ry
     estimated scf accuracy    <          4.1E-09 Ry

     convergence has been achieved in   2 iterations

     Forces acting on atoms (Ry/au):

     atom    1 type  1   force =    -0.01472111   -0.01471819   -0.01472186
     atom    2 type  1   force =    -0.01472171   -0.01472513   -0.01472167
     atom    3 type  1   force =    -0.01472371   -0.01472025   -0.01472292
     atom    4 type  1   force =    -0.01472025   -0.01472428   -0.01471996
     atom    5 type  1   force =     0.01472186    0.01472561    0.01472304
     atom    6 type  1   force =     0.01472308    0.01471942    0.01472188
     atom    7 type  1   force =     0.01472120    0.01472165    0.01471938
     atom    8 type  1   force =     0.01472063    0.01472117    0.01472210

     Total force =     0.072122     Total SCF correction =     0.000030

     Entering Dynamics:    iteration =     3
                           time      =   0.0029 pico-seconds


ATOMIC_POSITIONS (alat)
Si      -0.123103376  -0.123103362  -0.123103351
Si       0.376896648   0.376896629  -0.123103369
Si       0.376896630  -0.123103352   0.376896648
Si      -0.123103360   0.376896629   0.376896618
Si       0.123103368   0.123103366   0.123103346
Si       0.623103361   0.623103364   0.123103376
Si       0.623103382   0.123103370   0.623103362
Si       0.123103346   0.623103356   0.623103371


     kinetic energy (Ekin) =     0.00016762 Ry
     temperature           =     2.52049663 K 
     Ekin + Etot (const)   =   -62.17578770 Ry

     Linear momentum :   -0.0000000000    0.0000000000    0.0000000000

     Writing output data file pwscf.save

     second order wave-functions extrapolation
     NEW-OLD atomic charge density approx. for the potential

     total cpu time spent up to now is        0.3 secs

     per-process dynamical memory:     3.2 Mb

     Self-consistent Calculation

     iteration #  1     ecut=     8.00 Ry     beta=0.70
     Davidson diagonalization with overlap
     ethr =  1.00E-06,  avg # of iterations =  1.0

     Threshold (ethr) on eigenvalues was too large:
     Diagonalizing with lowered threshold

     Davidson diagonalization with overlap
     ethr =  4.05E-10,  avg # of iterations =  1.0

     total cpu time spent up to now is        0.3 secs

     total energy              =     -62.17615791 Ry
     Harris-Foulkes estimate   =     -62.17615788 Ry
     estimated scf accuracy    <       0.00000013 Ry

     iteration #  2     ecut=     8.00 Ry     beta=0.70
     Davidson diagonalization with overlap
     ethr =  4.20E-10,  avg # of iterations =  1.0

     total cpu time spent up to now is        0.4 secs

     total energy              =     -62.17615791 Ry
     Harris-Foulkes estimate   =     -62.17615791 Ry
     estimated scf accuracy    <       0.00000001 Ry

     iteration #  3     ecut=     8.00 Ry     beta=0.70
     Davidson diagonalization with overlap
     ethr =  3.18E-11,  avg # of iterations =  1.0

     total cpu time spent up to now is        0.4 secs

     End of self-consistent calculation

          k = 0.0000 0.0000 0.0000 (   437 PWs)   bands (ev):

    -5.2232  -1.0901  -1.0901  -1.0901  -0.9601  -0.9600  -0.9600   3.5701
     3.5701   3.5701   3.6359   3.6359   3.6359   6.4996   6.8129   6.8129

     highest occupied level (ev):     6.8129

!    total energy              =     -62.17615791 Ry
     Harris-Foulkes estimate   =     -62.17615791 Ry
     estimated scf accuracy    <          8.9E-11 Ry

     convergence has been achieved in   3 iterations

     Forces acting on atoms (Ry/au):

     atom    1 type  1   force =    -0.01426934   -0.01426810   -0.01427671
     atom    2 type  1   force =    -0.01427865   -0.01427827   -0.01427350
     atom    3 type  1   force =    -0.01427757   -0.01427501   -0.01427875
     atom    4 type  1   force =    -0.01427219   -0.01427615   -0.01426901
     atom    5 type  1   force =     0.01427353    0.01427853    0.01427988
     atom    6 type  1   force =     0.01427739    0.01427129    0.01427193
     atom    7 type  1   force =     0.01426998    0.01427292    0.01427166
     atom    8 type  1   force =     0.01427685    0.01427478    0.01427451

     Total force =     0.069930     Total SCF correction =     0.000009

     Entering Dynamics:    iteration =     4
                           time      =   0.0039 pico-seconds


ATOMIC_POSITIONS (alat)
Si      -0.123182474  -0.123182451  -0.123182450
Si       0.376817545   0.376817516  -0.123182473
Si       0.376817519  -0.123182450   0.376817542
Si      -0.123182456   0.376817520   0.376817519
Si       0.123182471   0.123182479   0.123182450
Si       0.623182467   0.623182459   0.123182480
Si       0.623182483   0.123182471   0.623182455
Si       0.123182444   0.623182456   0.623182476


     kinetic energy (Ekin) =     0.00036959 Ry
     temperature           =     5.55755789 K 
     Ekin + Etot (const)   =   -62.17578832 Ry

     Linear momentum :    0.0000000000    0.0000000000    0.0000000000

     Writing output data file pwscf.save

     second order wave-functions extrapolation
     NEW-OLD atomic charge density approx. for the potential

     total cpu time spent up to now is        0.4 secs

     per-process dynamical memory:     3.2 Mb

     Self-consistent Calculation

     iteration #  1     ecut=     8.00 Ry     beta=0.70
     Davidson diagonalization with overlap
     ethr =  1.00E-06,  avg # of iterations =  1.0

     Threshold (ethr) on eigenvalues was too large:
     Diagonalizing with lowered threshold

     Davidson diagonalization with overlap
     ethr =  7.66E-10,  avg # of iterations =  1.0

     total cpu time spent up to now is        0.4 secs

     total energy              =     -62.17642779 Ry
     Harris-Foulkes estimate   =     -62.17642774 Ry
     estimated scf accuracy    <       0.00000026 Ry

     iteration #  2     ecut=     8.00 Ry     beta=0.70
     Davidson diagonalization with overlap
     ethr =  7.97E-10,  avg # of iterations =  1.0

     total cpu time spent up to now is        0.4 secs

     total energy              =     -62.17642780 Ry
     Harris-Foulkes estimate   =     -62.17642779 Ry
     estimated scf accuracy    <       0.00000002 Ry

     iteration #  3     ecut=     8.00 Ry     beta=0.70
     Davidson diagonalization with overlap
     ethr =  6.19E-11,  avg # of iterations =  1.0

     total cpu time spent up to now is        0.4 secs

     End of self-consistent calculation

          k = 0.0000 0.0000 0.0000 (   437 PWs)   bands (ev):

    -5.2230  -1.0871  -1.0871  -1.0871  -0.9627  -0.9627  -0.9627   3.5713
     3.5713   3.5713   3.6345   3.6345   3.6345   6.5082   6.8085   6.8085

     highest occupied level (ev):     6.8085

!    total energy              =     -62.17642780 Ry
     Harris-Foulkes estimate   =     -62.17642780 Ry
     estimated scf accuracy    <          1.1E-10 Ry

     convergence has been achieved in   3 iterations

     Forces acting on atoms (Ry/au):

     atom    1 type  1   force =    -0.01364808   -0.01364679   -0.01365895
     atom    2 type  1   force =    -0.01366177   -0.01366101   -0.01365338
     atom    3 type  1   force =    -0.01365762   -0.01365742   -0.01366236
     atom    4 type  1   force =    -0.01365364   -0.01365645   -0.01364691
     atom    5 type  1   force =     0.01365293    0.01366025    0.01366325
     atom    6 type  1   force =     0.01366046    0.01365138    0.01365067
     atom    7 type  1   force =     0.01364813    0.01365390    0.01365246
     atom    8 type  1   force =     0.01365959    0.01365612    0.01365520

     Total force =     0.066897     Total SCF correction =     0.000004

     Entering Dynamics:    iteration =     5
                           time      =   0.0048 pico-seconds


ATOMIC_POSITIONS (alat)
Si      -0.123282521  -0.123282487  -0.123282515
Si       0.376717472   0.376717434  -0.123282533
Si       0.376717444  -0.123282511   0.376717466
Si      -0.123282509   0.376717449   0.376717473
Si       0.123282530   0.123282559   0.123282526
Si       0.623282541   0.623282509   0.123282536
Si       0.623282534   0.123282530   0.623282505
Si       0.123282509   0.623282517   0.623282541


     kinetic energy (Ekin) =     0.00063867 Ry
     temperature           =     9.60364712 K 
     Ekin + Etot (const)   =   -62.17578913 Ry

     Linear momentum :    0.0000000000    0.0000000000    0.0000000000

     Writing output data file pwscf.save

     second order wave-functions extrapolation
     NEW-OLD atomic charge density approx. for the potential

     total cpu time spent up to now is        0.4 secs

     per-process dynamical memory:     3.2 Mb

     Self-consistent Calculation

     iteration #  1     ecut=     8.00 Ry     beta=0.70
     Davidson diagonalization with overlap
     ethr =  1.00E-06,  avg # of iterations =  1.0

     Threshold (ethr) on eigenvalues was too large:
     Diagonalizing with lowered threshold

     Davidson diagonalization with overlap
     ethr =  1.23E-09,  avg # of iterations =  1.0

     total cpu time spent up to now is        0.5 secs

     total energy              =     -62.17675209 Ry
     Harris-Foulkes estimate   =     -62.17675201 Ry
     estimated scf accuracy    <       0.00000041 Ry

     iteration #  2     ecut=     8.00 Ry     beta=0.70
     Davidson diagonalization with overlap
     ethr =  1.28E-09,  avg # of iterations =  1.0

     total cpu time spent up to now is        0.5 secs

     total energy              =     -62.17675211 Ry
     Harris-Foulkes estimate   =     -62.17675210 Ry
     estimated scf accuracy    <       0.00000003 Ry

     iteration #  3     ecut=     8.00 Ry     beta=0.70
     Davidson diagonalization with overlap
     ethr =  9.92E-11,  avg # of iterations =  1.0

     total cpu time spent up to now is        0.5 secs

     End of self-consistent calculation

          k = 0.0000 0.0000 0.0000 (   437 PWs)   bands (ev):

    -5.2228  -1.0833  -1.0833  -1.0833  -0.9660  -0.9660  -0.9660   3.5728
     3.5728   3.5729   3.6328   3.6328   3.6328   6.5191   6.8029   6.8029

     highest occupied level (ev):     6.8029

!    total energy              =     -62.17675211 Ry
     Harris-Foulkes estimate   =     -62.17675211 Ry
     estimated scf accuracy    <          1.5E-10 Ry

     convergence has been achieved in   3 iterations

     Forces acting on atoms (Ry/au):

     atom    1 type  1   force =    -0.01286871   -0.01286692   -0.01287953
     atom    2 type  1   force =    -0.01288209   -0.01288152   -0.01287335
     atom    3 type  1   force =    -0.01287608   -0.01287872   -0.01288323
     atom    4 type  1   force =    -0.01287538   -0.01287517   -0.01286649
     atom    5 type  1   force =     0.01287234    0.01288020    0.01288425
     atom    6 type  1   force =     0.01288161    0.01287148    0.01286952
     atom    7 type  1   force =     0.01286797    0.01287379    0.01287294
     atom    8 type  1   force =     0.01288035    0.01287686    0.01287590

     Total force =     0.063077     Total SCF correction =     0.000004

     Entering Dynamics:    iteration =     6
                           time      =   0.0058 pico-seconds


ATOMIC_POSITIONS (alat)
Si      -0.123402320  -0.123402273  -0.123402349
Si       0.376597626   0.376597580  -0.123402353
Si       0.376597605  -0.123402340   0.376597615
Si      -0.123402325   0.376597616   0.376597678
Si       0.123402347   0.123402410   0.123402379
Si       0.623402388   0.623402315   0.123402347
Si       0.623402336   0.123402349   0.623402314
Si       0.123402344   0.623402343   0.623402370


     kinetic energy (Ekin) =     0.00096201 Ry
     temperature           =    14.46558020 K 
     Ekin + Etot (const)   =   -62.17579010 Ry

     Linear momentum :    0.0000000000   -0.0000000000    0.0000000000

     Writing output data file pwscf.save

     second order wave-functions extrapolation
     NEW-OLD atomic charge density approx. for the potential

     total cpu time spent up to now is        0.5 secs

     per-process dynamical memory:     3.2 Mb

     Self-consistent Calculation

     iteration #  1     ecut=     8.00 Ry     beta=0.70
     Davidson diagonalization with overlap
     ethr =  1.00E-06,  avg # of iterations =  2.0

     Threshold (ethr) on eigenvalues was too large:
     Diagonalizing with lowered threshold

     Davidson diagonalization with overlap
     ethr =  1.79E-09,  avg # of iterations =  1.0

     total cpu time spent up to now is        0.5 secs

     total energy              =     -62.17711542 Ry
     Harris-Foulkes estimate   =     -62.17711531 Ry
     estimated scf accuracy    <       0.00000059 Ry

     iteration #  2     ecut=     8.00 Ry     beta=0.70
     Davidson diagonalization with overlap
     ethr =  1.83E-09,  avg # of iterations =  1.0

     total cpu time spent up to now is        0.5 secs

     total energy              =     -62.17711544 Ry
     Harris-Foulkes estimate   =     -62.17711543 Ry
     estimated scf accuracy    <       0.00000005 Ry

     iteration #  3     ecut=     8.00 Ry     beta=0.70
     Davidson diagonalization with overlap
     ethr =  1.41E-10,  avg # of iterations =  1.0

     total cpu time spent up to now is        0.5 secs

     End of self-consistent calculation

          k = 0.0000 0.0000 0.0000 (   437 PWs)   bands (ev):

    -5.2226  -1.0789  -1.0789  -1.0788  -0.9700  -0.9700  -0.9700   3.5747
     3.5747   3.5747   3.6307   3.6307   3.6307   6.5322   6.7962   6.7962

     highest occupied level (ev):     6.7962

!    total energy              =     -62.17711544 Ry
     Harris-Foulkes estimate   =     -62.17711544 Ry
     estimated scf accuracy    <          1.6E-10 Ry

     convergence has been achieved in   3 iterations

     Forces acting on atoms (Ry/au):

     atom    1 type  1   force =    -0.01194204   -0.01193909   -0.01194934
     atom    2 type  1   force =    -0.01195047   -0.01195129   -0.01194429
     atom    3 type  1   force =    -0.01194493   -0.01194981   -0.01195290
     atom    4 type  1   force =    -0.01194762   -0.01194459   -0.01193854
     atom    5 type  1   force =     0.01194284    0.01195005    0.01195356
     atom    6 type  1   force =     0.01195161    0.01194263    0.01193995
     atom    7 type  1   force =     0.01194047    0.01194464    0.01194404
     atom    8 type  1   force =     0.01195014    0.01194747    0.01194751

     Total force =     0.058524     Total SCF correction =     0.000003

     Entering Dynamics:    iteration =     7
                           time      =   0.0068 pico-seconds


ATOMIC_POSITIONS (alat)
Si      -0.123540451  -0.123540385  -0.123540525
Si       0.376459436   0.376459381  -0.123540508
Si       0.376459431  -0.123540511   0.376459417
Si      -0.123540480   0.376459448   0.376459557
Si       0.123540497   0.123540603   0.123540580
Si       0.623540579   0.623540453   0.123540485
Si       0.623540466   0.123540502   0.623540456
Si       0.123540521   0.623540508   0.623540538


     kinetic energy (Ekin) =     0.00132426 Ry
     temperature           =    19.91280670 K 
     Ekin + Etot (const)   =   -62.17579118 Ry

     Linear momentum :   -0.0000000000    0.0000000000   -0.0000000000

     Writing output data file pwscf.save

     second order wave-functions extrapolation
     NEW-OLD atomic charge density approx. for the potential

     total cpu time spent up to now is        0.6 secs

     per-process dynamical memory:     3.2 Mb

     Self-consistent Calculation

     iteration #  1     ecut=     8.00 Ry     beta=0.70
     Davidson diagonalization with overlap
     ethr =  1.00E-06,  avg # of iterations =  2.0

     Threshold (ethr) on eigenvalues was too large:
     Diagonalizing with lowered threshold

     Davidson diagonalization with overlap
     ethr =  2.38E-09,  avg # of iterations =  1.0

     total cpu time spent up to now is        0.6 secs

     total energy              =     -62.17750068 Ry
     Harris-Foulkes estimate   =     -62.17750052 Ry
     estimated scf accuracy    <       0.00000078 Ry

     iteration #  2     ecut=     8.00 Ry     beta=0.70
     Davidson diagonalization with overlap
     ethr =  2.42E-09,  avg # of iterations =  1.0

     total cpu time spent up to now is        0.6 secs

     total energy              =     -62.17750070 Ry
     Harris-Foulkes estimate   =     -62.17750068 Ry
     estimated scf accuracy    <       0.00000006 Ry

     iteration #  3     ecut=     8.00 Ry     beta=0.70
     Davidson diagonalization with overlap
     ethr =  1.88E-10,  avg # of iterations =  1.0

     total cpu time spent up to now is        0.6 secs

     End of self-consistent calculation

          k = 0.0000 0.0000 0.0000 (   437 PWs)   bands (ev):

    -5.2224  -1.0737  -1.0737  -1.0737  -0.9746  -0.9746  -0.9746   3.5769
     3.5769   3.5769   3.6283   3.6283   3.6283   6.5473   6.7884   6.7884

     highest occupied level (ev):     6.7884

!    total energy              =     -62.17750070 Ry
     Harris-Foulkes estimate   =     -62.17750070 Ry
     estimated scf accuracy    <          1.9E-10 Ry

     convergence has been achieved in   3 iterations

     Forces acting on atoms (Ry/au):

     atom    1 type  1   force =    -0.01087954   -0.01087612   -0.01088218
     atom    2 type  1   force =    -0.01088159   -0.01088386   -0.01087928
     atom    3 type  1   force =    -0.01087783   -0.01088404   -0.01088515
     atom    4 type  1   force =    -0.01088300   -0.01087789   -0.01087545
     atom    5 type  1   force =     0.01087752    0.01088274    0.01088527
     atom    6 type  1   force =     0.01088420    0.01087812    0.01087520
     atom    7 type  1   force =     0.01087746    0.01087931    0.01087907
     atom    8 type  1   force =     0.01088277    0.01088174    0.01088254

     Total force =     0.053303     Total SCF correction =     0.000003

     Entering Dynamics:    iteration =     8
                           time      =   0.0077 pico-seconds


ATOMIC_POSITIONS (alat)
Si      -0.123695280  -0.123695191  -0.123695405
Si       0.376304544   0.376304477  -0.123695361
Si       0.376304561  -0.123695389   0.376304511
Si      -0.123695339   0.376304584   0.376304743
Si       0.123695342   0.123695500   0.123695489
Si       0.623695477   0.623695288   0.123695315
Si       0.623695292   0.123695355   0.623695297
Si       0.123695404   0.623695376   0.623695410


     kinetic energy (Ekin) =     0.00170839 Ry
     temperature           =    25.68887927 K 
     Ekin + Etot (const)   =   -62.17579231 Ry

     Linear momentum :   -0.0000000000    0.0000000000    0.0000000000

     Writing output data file pwscf.save

     second order wave-functions extrapolation
     NEW-OLD atomic charge density approx. for the potential

     total cpu time spent up to now is        0.6 secs

     per-process dynamical memory:     3.2 Mb

     Self-consistent Calculation

     iteration #  1     ecut=     8.00 Ry     beta=0.70
     Davidson diagonalization with overlap
     ethr =  1.00E-06,  avg # of iterations =  2.0

     Threshold (ethr) on eigenvalues was too large:
     Diagonalizing with lowered threshold

     Davidson diagonalization with overlap
     ethr =  3.01E-09,  avg # of iterations =  1.0

     total cpu time spent up to now is        0.6 secs

     total energy              =     -62.17788988 Ry
     Harris-Foulkes estimate   =     -62.17788968 Ry
     estimated scf accuracy    <       0.00000097 Ry

     iteration #  2     ecut=     8.00 Ry     beta=0.70
     Davidson diagonalization with overlap
     ethr =  3.05E-09,  avg # of iterations =  1.0

     total cpu time spent up to now is        0.6 secs

     total energy              =     -62.17788991 Ry
     Harris-Foulkes estimate   =     -62.17788989 Ry
     estimated scf accuracy    <       0.00000007 Ry

     iteration #  3     ecut=     8.00 Ry     beta=0.70
     Davidson diagonalization with overlap
     ethr =  2.34E-10,  avg # of iterations =  1.0

     total cpu time spent up to now is        0.6 secs

     End of self-consistent calculation

          k = 0.0000 0.0000 0.0000 (   437 PWs)   bands (ev):

    -5.2221  -1.0681  -1.0681  -1.0681  -0.9797  -0.9797  -0.9797   3.5794
     3.5794   3.5794   3.6256   3.6256   3.6256   6.5642   6.7798   6.7798

     highest occupied level (ev):     6.7798

!    total energy              =     -62.17788991 Ry
     Harris-Foulkes estimate   =     -62.17788991 Ry
     estimated scf accuracy    <          2.4E-10 Ry

     convergence has been achieved in   3 iterations

     Forces acting on atoms (Ry/au):

     atom    1 type  1   force =    -0.00969584   -0.00969269   -0.00969369
     atom    2 type  1   force =    -0.00969196   -0.00969490   -0.00969340
     atom    3 type  1   force =    -0.00969037   -0.00969656   -0.00969573
     atom    4 type  1   force =    -0.00969655   -0.00969057   -0.00969199
     atom    5 type  1   force =     0.00969166    0.00969409    0.00969521
     atom    6 type  1   force =     0.00969530    0.00969298    0.00969044
     atom    7 type  1   force =     0.00969373    0.00969283    0.00969307
     atom    8 type  1   force =     0.00969403    0.00969483    0.00969609

     Total force =     0.047489     Total SCF correction =     0.000003

     Entering Dynamics:    iteration =     9
                           time      =   0.0087 pico-seconds


ATOMIC_POSITIONS (alat)
Si      -0.123864992  -0.123864874  -0.123865163
Si       0.376134775   0.376134691  -0.123865093
Si       0.376134816  -0.123865151   0.376134722
Si      -0.123865083   0.376134845   0.376135053
Si       0.123865064   0.123865278   0.123865280
Si       0.623865257   0.623865001   0.123865020
Si       0.623864997   0.123865086   0.623865017
Si       0.123865166   0.623865125   0.623865165


     kinetic energy (Ekin) =     0.00209647 Ry
     temperature           =    31.52438626 K 
     Ekin + Etot (const)   =   -62.17579344 Ry

     Linear momentum :   -0.0000000000    0.0000000000   -0.0000000000

     Writing output data file pwscf.save

     second order wave-functions extrapolation
     NEW-OLD atomic charge density approx. for the potential

     total cpu time spent up to now is        0.7 secs

     per-process dynamical memory:     3.2 Mb

     Self-consistent Calculation

     iteration #  1     ecut=     8.00 Ry     beta=0.70
     Davidson diagonalization with overlap
     ethr =  1.00E-06,  avg # of iterations =  2.0

     Threshold (ethr) on eigenvalues was too large:
     Diagonalizing with lowered threshold

     Davidson diagonalization with overlap
     ethr =  3.60E-09,  avg # of iterations =  1.0

     total cpu time spent up to now is        0.7 secs

     total energy              =     -62.17826506 Ry
     Harris-Foulkes estimate   =     -62.17826483 Ry
     estimated scf accuracy    <       0.00000117 Ry

     iteration #  2     ecut=     8.00 Ry     beta=0.70
     Davidson diagonalization with overlap
     ethr =  3.65E-09,  avg # of iterations =  1.0

     total cpu time spent up to now is        0.7 secs

     total energy              =     -62.17826510 Ry
     Harris-Foulkes estimate   =     -62.17826507 Ry
     estimated scf accuracy    <       0.00000009 Ry

     iteration #  3     ecut=     8.00 Ry     beta=0.70
     Davidson diagonalization with overlap
     ethr =  2.81E-10,  avg # of iterations =  1.0

     total cpu time spent up to now is        0.7 secs

     End of self-consistent calculation

          k = 0.0000 0.0000 0.0000 (   437 PWs)   bands (ev):

    -5.2219  -1.0619  -1.0619  -1.0619  -0.9854  -0.9854  -0.9854   3.5822
     3.5822   3.5822   3.6226   3.6226   3.6226   6.5828   6.7703   6.7703

     highest occupied level (ev):     6.7703

!    total energy              =     -62.17826510 Ry
     Harris-Foulkes estimate   =     -62.17826510 Ry
     estimated scf accuracy    <          2.9E-10 Ry

     convergence has been achieved in   3 iterations

     Forces acting on atoms (Ry/au):

     atom    1 type  1   force =    -0.00840572   -0.00840364   -0.00840016
     atom    2 type  1   force =    -0.00839822   -0.00840065   -0.00840219
     atom    3 type  1   force =    -0.00839854   -0.00840332   -0.00840096
     atom    4 type  1   force =    -0.00840390   -0.00839859   -0.00840302
     atom    5 type  1   force =     0.00840076    0.00840026    0.00840024
     atom    6 type  1   force =     0.00840110    0.00840239    0.00840064
     atom    7 type  1   force =     0.00840427    0.00840107    0.00840169
     atom    8 type  1   force =     0.00840024    0.00840248    0.00840375

     Total force =     0.041159     Total SCF correction =     0.000003

     Entering Dynamics:    iteration =    10
                           time      =   0.0097 pico-seconds


ATOMIC_POSITIONS (alat)
Si      -0.124047607  -0.124047457  -0.124047816
Si       0.375952116   0.375952010  -0.124047722
Si       0.375952180  -0.124047811   0.375952038
Si      -0.124047726   0.375952214   0.375952465
Si       0.124047680   0.124047949   0.124047965
Si       0.624047932   0.624047611   0.124047619
Si       0.624047603   0.124047712   0.624047632
Si       0.124047822   0.624047771   0.624047819


     kinetic energy (Ekin) =     0.00247059 Ry
     temperature           =    37.15002375 K 
     Ekin + Etot (const)   =   -62.17579451 Ry

     Linear momentum :   -0.0000000000   -0.0000000000   -0.0000000000

     Writing output data file pwscf.save

     second order wave-functions extrapolation
     NEW-OLD atomic charge density approx. for the potential

     total cpu time spent up to now is        0.7 secs

     per-process dynamical memory:     3.2 Mb

     Self-consistent Calculation

     iteration #  1     ecut=     8.00 Ry     beta=0.70
     Davidson diagonalization with overlap
     ethr =  1.00E-06,  avg # of iterations =  2.0

     Threshold (ethr) on eigenvalues was too large:
     Diagonalizing with lowered threshold

     Davidson diagonalization with overlap
     ethr =  4.16E-09,  avg # of iterations =  1.0

     total cpu time spent up to now is        0.8 secs

     total energy              =     -62.17860914 Ry
     Harris-Foulkes estimate   =     -62.17860886 Ry
     estimated scf accuracy    <       0.00000135 Ry

     iteration #  2     ecut=     8.00 Ry     beta=0.70
     Davidson diagonalization with overlap
     ethr =  4.21E-09,  avg # of iterations =  1.0

     total cpu time spent up to now is        0.8 secs

     total energy              =     -62.17860918 Ry
     Harris-Foulkes estimate   =     -62.17860914 Ry
     estimated scf accuracy    <       0.00000010 Ry

     iteration #  3     ecut=     8.00 Ry     beta=0.70
     Davidson diagonalization with overlap
     ethr =  3.25E-10,  avg # of iterations =  1.0

     total cpu time spent up to now is        0.8 secs

     End of self-consistent calculation

          k = 0.0000 0.0000 0.0000 (   437 PWs)   bands (ev):

    -5.2217  -1.0554  -1.0554  -1.0554  -0.9914  -0.9914  -0.9914   3.5853
     3.5853   3.5853   3.6193   3.6193   3.6193   6.6028   6.7602   6.7602

     highest occupied level (ev):     6.7602

!    total energy              =     -62.17860918 Ry
     Harris-Foulkes estimate   =     -62.17860918 Ry
     estimated scf accuracy    <          3.3E-10 Ry

     convergence has been achieved in   3 iterations

     Forces acting on atoms (Ry/au):

     atom    1 type  1   force =    -0.00702630   -0.00702585   -0.00701952
     atom    2 type  1   force =    -0.00701818   -0.00701924   -0.00702307
     atom    3 type  1   force =    -0.00701969   -0.00702211   -0.00701902
     atom    4 type  1   force =    -0.00702291   -0.00701955   -0.00702536
     atom    5 type  1   force =     0.00702208    0.00701913    0.00701858
     atom    6 type  1   force =     0.00701959    0.00702362    0.00702285
     atom    7 type  1   force =     0.00702603    0.00702160    0.00702248
     atom    8 type  1   force =     0.00701938    0.00702240    0.00702306

     Total force =     0.034399     Total SCF correction =     0.000003

     Entering Dynamics:    iteration =    11
                           time      =   0.0106 pico-seconds


ATOMIC_POSITIONS (alat)
Si      -0.124241006  -0.124240824  -0.124241243
Si       0.375758684   0.375758556  -0.124241131
Si       0.375758769  -0.124241249   0.375758581
Si      -0.124241148   0.375758809   0.375759093
Si       0.124241075   0.124241395   0.124241422
Si       0.624241382   0.624241003   0.124240998
Si       0.624240993   0.124241115   0.624241027
Si       0.124241252   0.624241196   0.624241253


     kinetic energy (Ekin) =     0.00281371 Ry
     temperature           =    42.30937996 K 
     Ekin + Etot (const)   =   -62.17579548 Ry

     Linear momentum :   -0.0000000000   -0.0000000000    0.0000000000

     Writing output data file pwscf.save

     second order wave-functions extrapolation
     NEW-OLD atomic charge density approx. for the potential

     total cpu time spent up to now is        0.8 secs

     per-process dynamical memory:     3.2 Mb

     Self-consistent Calculation

     iteration #  1     ecut=     8.00 Ry     beta=0.70
     Davidson diagonalization with overlap
     ethr =  1.00E-06,  avg # of iterations =  2.0

     Threshold (ethr) on eigenvalues was too large:
     Diagonalizing with lowered threshold

     Davidson diagonalization with overlap
     ethr =  4.65E-09,  avg # of iterations =  1.0

     total cpu time spent up to now is        0.8 secs

     total energy              =     -62.17890666 Ry
     Harris-Foulkes estimate   =     -62.17890634 Ry
     estimated scf accuracy    <       0.00000151 Ry

     iteration #  2     ecut=     8.00 Ry     beta=0.70
     Davidson diagonalization with overlap
     ethr =  4.70E-09,  avg # of iterations =  1.0

     total cpu time spent up to now is        0.8 secs

     total energy              =     -62.17890670 Ry
     Harris-Foulkes estimate   =     -62.17890667 Ry
     estimated scf accuracy    <       0.00000012 Ry

     iteration #  3     ecut=     8.00 Ry     beta=0.70
     Davidson diagonalization with overlap
     ethr =  3.64E-10,  avg # of iterations =  1.0

     total cpu time spent up to now is        0.8 secs

     End of self-consistent calculation

          k = 0.0000 0.0000 0.0000 (   437 PWs)   bands (ev):

    -5.2215  -1.0486  -1.0486  -1.0486  -0.9978  -0.9978  -0.9978   3.5886
     3.5886   3.5886   3.6159   3.6159   3.6159   6.6240   6.7494   6.7494

     highest occupied level (ev):     6.7494

!    total energy              =     -62.17890671 Ry
     Harris-Foulkes estimate   =     -62.17890671 Ry
     estimated scf accuracy    <          3.6E-10 Ry

     convergence has been achieved in   3 iterations

     Forces acting on atoms (Ry/au):

     atom    1 type  1   force =    -0.00557569   -0.00557703   -0.00556982
     atom    2 type  1   force =    -0.00556956   -0.00556891   -0.00557382
     atom    3 type  1   force =    -0.00557136   -0.00557123   -0.00556822
     atom    4 type  1   force =    -0.00557201   -0.00557116   -0.00557673
     atom    5 type  1   force =     0.00557337    0.00556884    0.00556840
     atom    6 type  1   force =     0.00556897    0.00557452    0.00557462
     atom    7 type  1   force =     0.00557669    0.00557240    0.00557336
     atom    8 type  1   force =     0.00556957    0.00557257    0.00557220

     Total force =     0.027298     Total SCF correction =     0.000003

     Entering Dynamics:    iteration =    12
                           time      =   0.0116 pico-seconds


ATOMIC_POSITIONS (alat)
Si      -0.124442964  -0.124442752  -0.124443219
Si       0.375556703   0.375556553  -0.124443095
Si       0.375556807  -0.124443239   0.375556576
Si      -0.124443124   0.375556853   0.375557161
Si       0.124443024   0.124443388   0.124443427
Si       0.624443380   0.624442950   0.124442934
Si       0.624442943   0.124443072   0.624442976
Si       0.124443231   0.624443175   0.624443240


     kinetic energy (Ekin) =     0.00311041 Ry
     temperature           =    46.77095329 K 
     Ekin + Etot (const)   =   -62.17579629 Ry

     Linear momentum :    0.0000000000    0.0000000000    0.0000000000

     Writing output data file pwscf.save

     second order wave-functions extrapolation
     NEW-OLD atomic charge density approx. for the potential

     total cpu time spent up to now is        0.9 secs

     per-process dynamical memory:     3.2 Mb

     Self-consistent Calculation

     iteration #  1     ecut=     8.00 Ry     beta=0.70
     Davidson diagonalization with overlap
     ethr =  1.00E-06,  avg # of iterations =  2.0

     Threshold (ethr) on eigenvalues was too large:
     Diagonalizing with lowered threshold

     Davidson diagonalization with overlap
     ethr =  5.07E-09,  avg # of iterations =  1.0

     total cpu time spent up to now is        0.9 secs

     total energy              =     -62.17914453 Ry
     Harris-Foulkes estimate   =     -62.17914419 Ry
     estimated scf accuracy    <       0.00000164 Ry

     iteration #  2     ecut=     8.00 Ry     beta=0.70
     Davidson diagonalization with overlap
     ethr =  5.11E-09,  avg # of iterations =  1.0

     total cpu time spent up to now is        0.9 secs

     total energy              =     -62.17914459 Ry
     Harris-Foulkes estimate   =     -62.17914455 Ry
     estimated scf accuracy    <       0.00000013 Ry

     iteration #  3     ecut=     8.00 Ry     beta=0.70
     Davidson diagonalization with overlap
     ethr =  3.96E-10,  avg # of iterations =  1.0

     total cpu time spent up to now is        0.9 secs

     End of self-consistent calculation

          k = 0.0000 0.0000 0.0000 (   437 PWs)   bands (ev):

    -5.2214  -1.0416  -1.0416  -1.0416  -1.0045  -1.0045  -1.0045   3.5921
     3.5921   3.5921   3.6123   3.6123   3.6123   6.6461   6.7382   6.7382

     highest occupied level (ev):     6.7382

!    total energy              =     -62.17914459 Ry
     Harris-Foulkes estimate   =     -62.17914459 Ry
     estimated scf accuracy    <          3.8E-10 Ry

     convergence has been achieved in   3 iterations

     Forces acting on atoms (Ry/au):

     atom    1 type  1   force =    -0.00407289   -0.00407575   -0.00406934
     atom    2 type  1   force =    -0.00407027   -0.00406805   -0.00407275
     atom    3 type  1   force =    -0.00407152   -0.00406936   -0.00406706
     atom    4 type  1   force =    -0.00407006   -0.00407145   -0.00407566
     atom    5 type  1   force =     0.00407297    0.00406788    0.00406795
     atom    6 type  1   force =     0.00406777    0.00407354    0.00407417
     atom    7 type  1   force =     0.00407487    0.00407184    0.00407275
     atom    8 type  1   force =     0.00406913    0.00407135    0.00406994

     Total force =     0.019945     Total SCF correction =     0.000003

     Entering Dynamics:    iteration =    13
                           time      =   0.0126 pico-seconds


ATOMIC_POSITIONS (alat)
Si      -0.124651173  -0.124650936  -0.124651442
Si       0.375348474   0.375348307  -0.124651311
Si       0.375348594  -0.124651476   0.375348329
Si      -0.124651346   0.375348647   0.375348973
Si       0.124651226   0.124651625   0.124651676
Si       0.624651622   0.624651151   0.124651123
Si       0.624651147   0.124651279   0.624651177
Si       0.124651456   0.624651403   0.624651474


     kinetic energy (Ekin) =     0.00334766 Ry
     temperature           =    50.33840271 K 
     Ekin + Etot (const)   =   -62.17579693 Ry

     Linear momentum :    0.0000000000   -0.0000000000    0.0000000000

     Writing output data file pwscf.save

     second order wave-functions extrapolation
     NEW-OLD atomic charge density approx. for the potential

     total cpu time spent up to now is        0.9 secs

     per-process dynamical memory:     3.2 Mb

     Self-consistent Calculation

     iteration #  1     ecut=     8.00 Ry     beta=0.70
     Davidson diagonalization with overlap
     ethr =  1.00E-06,  avg # of iterations =  2.0

     Threshold (ethr) on eigenvalues was too large:
     Diagonalizing with lowered threshold

     Davidson diagonalization with overlap
     ethr =  5.37E-09,  avg # of iterations =  1.0

     total cpu time spent up to now is        0.9 secs

     total energy              =     -62.17931258 Ry
     Harris-Foulkes estimate   =     -62.17931221 Ry
     estimated scf accuracy    <       0.00000173 Ry

     iteration #  2     ecut=     8.00 Ry     beta=0.70
     Davidson diagonalization with overlap
     ethr =  5.41E-09,  avg # of iterations =  1.0

     total cpu time spent up to now is        0.9 secs

     total energy              =     -62.17931264 Ry
     Harris-Foulkes estimate   =     -62.17931259 Ry
     estimated scf accuracy    <       0.00000013 Ry

     iteration #  3     ecut=     8.00 Ry     beta=0.70
     Davidson diagonalization with overlap
     ethr =  4.20E-10,  avg # of iterations =  1.0

     total cpu time spent up to now is        0.9 secs

     End of self-consistent calculation

          k = 0.0000 0.0000 0.0000 (   437 PWs)   bands (ev):

    -5.2213  -1.0345  -1.0345  -1.0345  -1.0114  -1.0114  -1.0114   3.5958
     3.5958   3.5958   3.6085   3.6085   3.6085   6.6690   6.7267   6.7267

     highest occupied level (ev):     6.7267

!    total energy              =     -62.17931264 Ry
     Harris-Foulkes estimate   =     -62.17931264 Ry
     estimated scf accuracy    <          3.9E-10 Ry

     convergence has been achieved in   3 iterations

     Forces acting on atoms (Ry/au):

     atom    1 type  1   force =    -0.00253731   -0.00254067   -0.00253638
     atom    2 type  1   force =    -0.00253799   -0.00253496   -0.00253841
     atom    3 type  1   force =    -0.00253838   -0.00253531   -0.00253410
     atom    4 type  1   force =    -0.00253585   -0.00253855   -0.00254071
     atom    5 type  1   force =     0.00253921    0.00253490    0.00253538
     atom    6 type  1   force =     0.00253457    0.00253914    0.00253992
     atom    7 type  1   force =     0.00253947    0.00253824    0.00253896
     atom    8 type  1   force =     0.00253627    0.00253722    0.00253534

     Total force =     0.012431     Total SCF correction =     0.000002

     Entering Dynamics:    iteration =    14
                           time      =   0.0135 pico-seconds


ATOMIC_POSITIONS (alat)
Si      -0.124863277  -0.124863019  -0.124863557
Si       0.375136350   0.375136169  -0.124863423
Si       0.375136486  -0.124863604   0.375136193
Si      -0.124863461   0.375136545   0.375136885
Si       0.124863325   0.124863753   0.124863817
Si       0.624863754   0.624863249   0.124863211
Si       0.624863250   0.124863382   0.624863275
Si       0.124863574   0.624863525   0.624863600


     kinetic energy (Ekin) =     0.00351528 Ry
     temperature           =    52.85888425 K 
     Ekin + Etot (const)   =   -62.17579736 Ry

     Linear momentum :   -0.0000000000   -0.0000000000    0.0000000000

     Writing output data file pwscf.save

     second order wave-functions extrapolation
     NEW-OLD atomic charge density approx. for the potential

     total cpu time spent up to now is        1.0 secs

     per-process dynamical memory:     3.2 Mb

     Self-consistent Calculation

     iteration #  1     ecut=     8.00 Ry     beta=0.70
     Davidson diagonalization with overlap
     ethr =  1.00E-06,  avg # of iterations =  2.0

     Threshold (ethr) on eigenvalues was too large:
     Diagonalizing with lowered threshold

     Davidson diagonalization with overlap
     ethr =  5.55E-09,  avg # of iterations =  1.0

     total cpu time spent up to now is        1.0 secs

     total energy              =     -62.17940391 Ry
     Harris-Foulkes estimate   =     -62.17940352 Ry
     estimated scf accuracy    <       0.00000179 Ry

     iteration #  2     ecut=     8.00 Ry     beta=0.70
     Davidson diagonalization with overlap
     ethr =  5.59E-09,  avg # of iterations =  1.0

     total cpu time spent up to now is        1.0 secs

     total energy              =     -62.17940397 Ry
     Harris-Foulkes estimate   =     -62.17940392 Ry
     estimated scf accuracy    <       0.00000014 Ry

     iteration #  3     ecut=     8.00 Ry     beta=0.70
     Davidson diagonalization with overlap
     ethr =  4.36E-10,  avg # of iterations =  1.0

     total cpu time spent up to now is        1.0 secs

     End of self-consistent calculation

          k = 0.0000 0.0000 0.0000 (   437 PWs)   bands (ev):

    -5.2212  -1.0274  -1.0274  -1.0274  -1.0184  -1.0184  -1.0184   3.5996
     3.5996   3.5996   3.6046   3.6046   3.6046   6.6924   6.7150   6.7150

     highest occupied level (ev):     6.7150

!    total energy              =     -62.17940397 Ry
     Harris-Foulkes estimate   =     -62.17940397 Ry
     estimated scf accuracy    <          4.0E-10 Ry

     convergence has been achieved in   3 iterations

     Forces acting on atoms (Ry/au):

     atom    1 type  1   force =    -0.00098746   -0.00099041   -0.00098876
     atom    2 type  1   force =    -0.00099054   -0.00098752   -0.00098923
     atom    3 type  1   force =    -0.00098996   -0.00098724   -0.00098712
     atom    4 type  1   force =    -0.00098763   -0.00099042   -0.00099052
     atom    5 type  1   force =     0.00099028    0.00098759    0.00098838
     atom    6 type  1   force =     0.00098730    0.00098979    0.00099034
     atom    7 type  1   force =     0.00098913    0.00098971    0.00099021
     atom    8 type  1   force =     0.00098889    0.00098851    0.00098670

     Total force =     0.004845     Total SCF correction =     0.000002

     Entering Dynamics:    iteration =    15
                           time      =   0.0145 pico-seconds


ATOMIC_POSITIONS (alat)
Si      -0.125076897  -0.125076623  -0.125077191
Si       0.374922705   0.374922516  -0.125077053
Si       0.374922858  -0.125077247   0.374922541
Si      -0.125077092   0.374922922   0.374923277
Si       0.125076944   0.125077397   0.125077475
Si       0.625077401   0.625076866   0.125076820
Si       0.625076871   0.125077004   0.625076892
Si       0.125077210   0.625077165   0.625077240


     kinetic energy (Ekin) =     0.00360640 Ry
     temperature           =    54.22898798 K 
     Ekin + Etot (const)   =   -62.17579757 Ry

     Linear momentum :   -0.0000000000    0.0000000000   -0.0000000000

     Writing output data file pwscf.save

     second order wave-functions extrapolation
     NEW-OLD atomic charge density approx. for the potential

     total cpu time spent up to now is        1.0 secs

     per-process dynamical memory:     3.2 Mb

     Self-consistent Calculation

     iteration #  1     ecut=     8.00 Ry     beta=0.70
     Davidson diagonalization with overlap
     ethr =  1.00E-06,  avg # of iterations =  2.0

     Threshold (ethr) on eigenvalues was too large:
     Diagonalizing with lowered threshold

     Davidson diagonalization with overlap
     ethr =  5.63E-09,  avg # of iterations =  1.0

     total cpu time spent up to now is        1.0 secs

     total energy              =     -62.17941515 Ry
     Harris-Foulkes estimate   =     -62.17941475 Ry
     estimated scf accuracy    <       0.00000181 Ry

     iteration #  2     ecut=     8.00 Ry     beta=0.70
     Davidson diagonalization with overlap
     ethr =  5.66E-09,  avg # of iterations =  1.0

     total cpu time spent up to now is        1.1 secs

     total energy              =     -62.17941521 Ry
     Harris-Foulkes estimate   =     -62.17941516 Ry
     estimated scf accuracy    <       0.00000014 Ry

     iteration #  3     ecut=     8.00 Ry     beta=0.70
     Davidson diagonalization with overlap
     ethr =  4.41E-10,  avg # of iterations =  1.0

     total cpu time spent up to now is        1.1 secs

     End of self-consistent calculation

          k = 0.0000 0.0000 0.0000 (   437 PWs)   bands (ev):

    -5.2212  -1.0254  -1.0254  -1.0254  -1.0203  -1.0203  -1.0203   3.6007
     3.6007   3.6007   3.6035   3.6035   3.6035   6.7032   6.7032   6.7159

     highest occupied level (ev):     6.7159

!    total energy              =     -62.17941521 Ry
     Harris-Foulkes estimate   =     -62.17941521 Ry
     estimated scf accuracy    <          4.1E-10 Ry

     convergence has been achieved in   3 iterations

     Forces acting on atoms (Ry/au):

     atom    1 type  1   force =     0.00055843    0.00055674    0.00055583
     atom    2 type  1   force =     0.00055471    0.00055674    0.00055692
     atom    3 type  1   force =     0.00055588    0.00055721    0.00055650
     atom    4 type  1   force =     0.00055691    0.00055524    0.00055669
     atom    5 type  1   force =    -0.00055589   -0.00055657   -0.00055566
     atom    6 type  1   force =    -0.00055669   -0.00055638   -0.00055649
     atom    7 type  1   force =    -0.00055787   -0.00055602   -0.00055559
     atom    8 type  1   force =    -0.00055549   -0.00055696   -0.00055821

     Total force =     0.002726     Total SCF correction =     0.000001

     Entering Dynamics:    iteration =    16
                           time      =   0.0155 pico-seconds


ATOMIC_POSITIONS (alat)
Si      -0.125289660  -0.125289372  -0.125289971
Si       0.374709912   0.374709717  -0.125289829
Si       0.374710084  -0.125290035   0.374709743
Si      -0.125289868   0.374710152   0.374710523
Si       0.125289709   0.125290187   0.125290280
Si       0.625290194   0.625289629   0.125289573
Si       0.625289635   0.125289773   0.625289657
Si       0.125289994   0.625289950   0.625290023


     kinetic energy (Ekin) =     0.00361765 Ry
     temperature           =    54.39820616 K 
     Ekin + Etot (const)   =   -62.17579756 Ry

     Linear momentum :   -0.0000000000   -0.0000000000   -0.0000000000

     Writing output data file pwscf.save

     second order wave-functions extrapolation
     NEW-OLD atomic charge density approx. for the potential

     total cpu time spent up to now is        1.1 secs

     per-process dynamical memory:     3.2 Mb

     Self-consistent Calculation

     iteration #  1     ecut=     8.00 Ry     beta=0.70
     Davidson diagonalization with overlap
     ethr =  1.00E-06,  avg # of iterations =  2.0

     Threshold (ethr) on eigenvalues was too large:
     Diagonalizing with lowered threshold

     Davidson diagonalization with overlap
     ethr =  5.55E-09,  avg # of iterations =  1.0

     total cpu time spent up to now is        1.1 secs

     total energy              =     -62.17934653 Ry
     Harris-Foulkes estimate   =     -62.17934613 Ry
     estimated scf accuracy    <       0.00000179 Ry

     iteration #  2     ecut=     8.00 Ry     beta=0.70
     Davidson diagonalization with overlap
     ethr =  5.59E-09,  avg # of iterations =  1.0

     total cpu time spent up to now is        1.1 secs

     total energy              =     -62.17934659 Ry
     Harris-Foulkes estimate   =     -62.17934654 Ry
     estimated scf accuracy    <       0.00000014 Ry

     iteration #  3     ecut=     8.00 Ry     beta=0.70
     Davidson diagonalization with overlap
     ethr =  4.37E-10,  avg # of iterations =  1.0

     total cpu time spent up to now is        1.1 secs

     End of self-consistent calculation

          k = 0.0000 0.0000 0.0000 (   437 PWs)   bands (ev):

    -5.2212  -1.0324  -1.0324  -1.0324  -1.0135  -1.0135  -1.0135   3.5967
     3.5968   3.5968   3.6075   3.6075   3.6075   6.6915   6.6915   6.7394

     highest occupied level (ev):     6.7394

!    total energy              =     -62.17934660 Ry
     Harris-Foulkes estimate   =     -62.17934660 Ry
     estimated scf accuracy    <          3.9E-10 Ry

     convergence has been achieved in   3 iterations

     Forces acting on atoms (Ry/au):

     atom    1 type  1   force =     0.00208354    0.00208317    0.00208050
     atom    2 type  1   force =     0.00208020    0.00208104    0.00208260
     atom    3 type  1   force =     0.00208165    0.00208114    0.00207995
     atom    4 type  1   force =     0.00208103    0.00208111    0.00208338
     atom    5 type  1   force =    -0.00208185   -0.00208071   -0.00207977
     atom    6 type  1   force =    -0.00208040   -0.00208219   -0.00208296
     atom    7 type  1   force =    -0.00208420   -0.00208160   -0.00208132
     atom    8 type  1   force =    -0.00207996   -0.00208196   -0.00208237

     Total force =     0.010198     Total SCF correction =     0.000001

     Entering Dynamics:    iteration =    17
                           time      =   0.0164 pico-seconds


ATOMIC_POSITIONS (alat)
Si      -0.125499224  -0.125498923  -0.125499558
Si       0.374500311   0.374500112  -0.125499408
Si       0.374500504  -0.125499628   0.374500138
Si      -0.125499450   0.374500576   0.374500967
Si       0.125499280   0.125499783   0.125499892
Si       0.625499794   0.625499196   0.125499130
Si       0.625499201   0.125499346   0.625499228
Si       0.125499585   0.625499539   0.625499611


     kinetic energy (Ekin) =     0.00354927 Ry
     temperature           =    53.36994137 K 
     Ekin + Etot (const)   =   -62.17579733 Ry

     Linear momentum :   -0.0000000000   -0.0000000000    0.0000000000

     Writing output data file pwscf.save

     second order wave-functions extrapolation
     NEW-OLD atomic charge density approx. for the potential

     total cpu time spent up to now is        1.1 secs

     per-process dynamical memory:     3.2 Mb

     Self-consistent Calculation

     iteration #  1     ecut=     8.00 Ry     beta=0.70
     Davidson diagonalization with overlap
     ethr =  1.00E-06,  avg # of iterations =  2.0

     Threshold (ethr) on eigenvalues was too large:
     Diagonalizing with lowered threshold

     Davidson diagonalization with overlap
     ethr =  5.36E-09,  avg # of iterations =  1.0

     total cpu time spent up to now is        1.2 secs

     total energy              =     -62.17920179 Ry
     Harris-Foulkes estimate   =     -62.17920140 Ry
     estimated scf accuracy    <       0.00000173 Ry

     iteration #  2     ecut=     8.00 Ry     beta=0.70
     Davidson diagonalization with overlap
     ethr =  5.40E-09,  avg # of iterations =  1.0

     total cpu time spent up to now is        1.2 secs

     total energy              =     -62.17920185 Ry
     Harris-Foulkes estimate   =     -62.17920180 Ry
     estimated scf accuracy    <       0.00000014 Ry

     iteration #  3     ecut=     8.00 Ry     beta=0.70
     Davidson diagonalization with overlap
     ethr =  4.24E-10,  avg # of iterations =  1.0

     total cpu time spent up to now is        1.2 secs

     End of self-consistent calculation

          k = 0.0000 0.0000 0.0000 (   437 PWs)   bands (ev):

    -5.2213  -1.0392  -1.0392  -1.0392  -1.0068  -1.0068  -1.0068   3.5928
     3.5928   3.5929   3.6115   3.6115   3.6115   6.6800   6.6800   6.7626

     highest occupied level (ev):     6.7626

!    total energy              =     -62.17920185 Ry
     Harris-Foulkes estimate   =     -62.17920185 Ry
     estimated scf accuracy    <          3.7E-10 Ry

     convergence has been achieved in   3 iterations

     Forces acting on atoms (Ry/au):

     atom    1 type  1   force =     0.00357164    0.00357260    0.00356898
     atom    2 type  1   force =     0.00356961    0.00356918    0.00357150
     atom    3 type  1   force =     0.00357090    0.00356855    0.00356735
     atom    4 type  1   force =     0.00356884    0.00357070    0.00357315
     atom    5 type  1   force =    -0.00357126   -0.00356870   -0.00356786
     atom    6 type  1   force =    -0.00356797   -0.00357126   -0.00357263
     atom    7 type  1   force =    -0.00357339   -0.00357081   -0.00357058
     atom    8 type  1   force =    -0.00356837   -0.00357027   -0.00356991

     Total force =     0.017491     Total SCF correction =     0.000001

     Entering Dynamics:    iteration =    18
                           time      =   0.0174 pico-seconds


ATOMIC_POSITIONS (alat)
Si      -0.125703306  -0.125702991  -0.125703666
Si       0.374296190   0.374295986  -0.125703505
Si       0.374296406  -0.125703745   0.374296008
Si      -0.125703554   0.374296481   0.374296896
Si       0.125703368   0.125703901   0.125704028
Si       0.625703917   0.625703281   0.125703203
Si       0.625703281   0.125703439   0.625703317
Si       0.125703698   0.625703648   0.625703718


     kinetic energy (Ekin) =     0.00340496 Ry
     temperature           =    51.20001028 K 
     Ekin + Etot (const)   =   -62.17579689 Ry

     Linear momentum :    0.0000000000    0.0000000000   -0.0000000000

     Writing output data file pwscf.save

     second order wave-functions extrapolation
     NEW-OLD atomic charge density approx. for the potential

     total cpu time spent up to now is        1.2 secs

     per-process dynamical memory:     3.2 Mb

     Self-consistent Calculation

     iteration #  1     ecut=     8.00 Ry     beta=0.70
     Davidson diagonalization with overlap
     ethr =  1.00E-06,  avg # of iterations =  2.0

     Threshold (ethr) on eigenvalues was too large:
     Diagonalizing with lowered threshold

     Davidson diagonalization with overlap
     ethr =  5.05E-09,  avg # of iterations =  1.0

     total cpu time spent up to now is        1.2 secs

     total energy              =     -62.17898790 Ry
     Harris-Foulkes estimate   =     -62.17898753 Ry
     estimated scf accuracy    <       0.00000163 Ry

     iteration #  2     ecut=     8.00 Ry     beta=0.70
     Davidson diagonalization with overlap
     ethr =  5.10E-09,  avg # of iterations =  1.0

     total cpu time spent up to now is        1.2 secs

     total energy              =     -62.17898796 Ry
     Harris-Foulkes estimate   =     -62.17898791 Ry
     estimated scf accuracy    <       0.00000013 Ry

     iteration #  3     ecut=     8.00 Ry     beta=0.70
     Davidson diagonalization with overlap
     ethr =  4.02E-10,  avg # of iterations =  1.0

     total cpu time spent up to now is        1.2 secs

     End of self-consistent calculation

          k = 0.0000 0.0000 0.0000 (   437 PWs)   bands (ev):

    -5.2215  -1.0459  -1.0459  -1.0459  -1.0004  -1.0004  -1.0004   3.5890
     3.5890   3.5890   3.6154   3.6154   3.6154   6.6688   6.6688   6.7851

     highest occupied level (ev):     6.7851

!    total energy              =     -62.17898796 Ry
     Harris-Foulkes estimate   =     -62.17898796 Ry
     estimated scf accuracy    <          3.5E-10 Ry

     convergence has been achieved in   3 iterations

     Forces acting on atoms (Ry/au):

     atom    1 type  1   force =     0.00500770    0.00500974    0.00500597
     atom    2 type  1   force =     0.00500733    0.00500583    0.00500827
     atom    3 type  1   force =     0.00500815    0.00500440    0.00500353
     atom    4 type  1   force =     0.00500520    0.00500846    0.00501060
     atom    5 type  1   force =    -0.00500866   -0.00500525   -0.00500460
     atom    6 type  1   force =    -0.00500419   -0.00500828   -0.00501004
     atom    7 type  1   force =    -0.00501018   -0.00500823   -0.00500801
     atom    8 type  1   force =    -0.00500535   -0.00500666   -0.00500573

     Total force =     0.024530     Total SCF correction =     0.000000

     Entering Dynamics:    iteration =    19
                           time      =   0.0184 pico-seconds


ATOMIC_POSITIONS (alat)
Si      -0.125899702  -0.125899369  -0.125900091
Si       0.374099755   0.374099543  -0.125899915
Si       0.374099995  -0.125900179   0.374099559
Si      -0.125899976   0.374100074   0.374100516
Si       0.125899769   0.125900336   0.125900483
Si       0.625900359   0.625899679   0.125899586
Si       0.625899671   0.125899844   0.625899720
Si       0.125900129   0.625900072   0.625900142


     kinetic energy (Ekin) =     0.00319168 Ry
     temperature           =    47.99291984 K 
     Ekin + Etot (const)   =   -62.17579628 Ry

     Linear momentum :   -0.0000000000   -0.0000000000    0.0000000000

     Writing output data file pwscf.save

     second order wave-functions extrapolation
     NEW-OLD atomic charge density approx. for the potential

     total cpu time spent up to now is        1.3 secs

     per-process dynamical memory:     3.2 Mb

     Self-consistent Calculation

     iteration #  1     ecut=     8.00 Ry     beta=0.70
     Davidson diagonalization with overlap
     ethr =  1.00E-06,  avg # of iterations =  2.0

     Threshold (ethr) on eigenvalues was too large:
     Diagonalizing with lowered threshold

     Davidson diagonalization with overlap
     ethr =  4.66E-09,  avg # of iterations =  1.0

     total cpu time spent up to now is        1.3 secs

     total energy              =     -62.17871470 Ry
     Harris-Foulkes estimate   =     -62.17871435 Ry
     estimated scf accuracy    <       0.00000151 Ry

     iteration #  2     ecut=     8.00 Ry     beta=0.70
     Davidson diagonalization with overlap
     ethr =  4.71E-09,  avg # of iterations =  1.0

     total cpu time spent up to now is        1.3 secs

     total energy              =     -62.17871475 Ry
     Harris-Foulkes estimate   =     -62.17871471 Ry
     estimated scf accuracy    <       0.00000012 Ry

     iteration #  3     ecut=     8.00 Ry     beta=0.70
     Davidson diagonalization with overlap
     ethr =  3.72E-10,  avg # of iterations =  1.0

     total cpu time spent up to now is        1.3 secs

     End of self-consistent calculation

          k = 0.0000 0.0000 0.0000 (   437 PWs)   bands (ev):

    -5.2216  -1.0523  -1.0523  -1.0523  -0.9944  -0.9944  -0.9944   3.5853
     3.5853   3.5853   3.6193   3.6193   3.6193   6.6581   6.6581   6.8069

     highest occupied level (ev):     6.8069

!    total energy              =     -62.17871476 Ry
     Harris-Foulkes estimate   =     -62.17871476 Ry
     estimated scf accuracy    <          3.2E-10 Ry

     convergence has been achieved in   3 iterations

     Forces acting on atoms (Ry/au):

     atom    1 type  1   force =     0.00637775    0.00638045    0.00637717
     atom    2 type  1   force =     0.00637891    0.00637668    0.00637874
     atom    3 type  1   force =     0.00637910    0.00637462    0.00637425
     atom    4 type  1   force =     0.00637595    0.00637998    0.00638155
     atom    5 type  1   force =    -0.00637976   -0.00637607   -0.00637563
     atom    6 type  1   force =    -0.00637487   -0.00637910   -0.00638095
     atom    7 type  1   force =    -0.00638051   -0.00637952   -0.00637933
     atom    8 type  1   force =    -0.00637657   -0.00637704   -0.00637580

     Total force =     0.031245     Total SCF correction =     0.000000

     Entering Dynamics:    iteration =    20
                           time      =   0.0194 pico-seconds


ATOMIC_POSITIONS (alat)
Si      -0.126086308  -0.126085954  -0.126086727
Si       0.373913111   0.373912889  -0.126086533
Si       0.373913375  -0.126086829   0.373912894
Si      -0.126086610   0.373913459   0.373913931
Si       0.126086377   0.126086985   0.126087151
Si       0.626087016   0.626086286   0.126086174
Si       0.626086268   0.126086457   0.626086331
Si       0.126086772   0.626086707   0.626086780


     kinetic energy (Ekin) =     0.00291924 Ry
     temperature           =    43.89623250 K 
     Ekin + Etot (const)   =   -62.17579552 Ry

     Linear momentum :   -0.0000000000   -0.0000000000   -0.0000000000

     Writing output data file pwscf.save

     second order wave-functions extrapolation
     NEW-OLD atomic charge density approx. for the potential

     total cpu time spent up to now is        1.3 secs

     per-process dynamical memory:     3.2 Mb

     Self-consistent Calculation

     iteration #  1     ecut=     8.00 Ry     beta=0.70
     Davidson diagonalization with overlap
     ethr =  1.00E-06,  avg # of iterations =  2.0

     Threshold (ethr) on eigenvalues was too large:
     Diagonalizing with lowered threshold

     Davidson diagonalization with overlap
     ethr =  4.20E-09,  avg # of iterations =  1.0

     total cpu time spent up to now is        1.3 secs

     total energy              =     -62.17839442 Ry
     Harris-Foulkes estimate   =     -62.17839410 Ry
     estimated scf accuracy    <       0.00000136 Ry

     iteration #  2     ecut=     8.00 Ry     beta=0.70
     Davidson diagonalization with overlap
     ethr =  4.24E-09,  avg # of iterations =  1.0

     total cpu time spent up to now is        1.3 secs

     total energy              =     -62.17839447 Ry
     Harris-Foulkes estimate   =     -62.17839443 Ry
     estimated scf accuracy    <       0.00000011 Ry

     iteration #  3     ecut=     8.00 Ry     beta=0.70
     Davidson diagonalization with overlap
     ethr =  3.35E-10,  avg # of iterations =  1.0

     total cpu time spent up to now is        1.4 secs

     End of self-consistent calculation

          k = 0.0000 0.0000 0.0000 (   437 PWs)   bands (ev):

    -5.2218  -1.0584  -1.0584  -1.0584  -0.9887  -0.9887  -0.9887   3.5818
     3.5818   3.5818   3.6230   3.6230   3.6230   6.6479   6.6479   6.8276

     highest occupied level (ev):     6.8276

!    total energy              =     -62.17839447 Ry
     Harris-Foulkes estimate   =     -62.17839447 Ry
     estimated scf accuracy    <          2.9E-10 Ry

     convergence has been achieved in   3 iterations

     Forces acting on atoms (Ry/au):

     atom    1 type  1   force =     0.00766893    0.00767186    0.00766940
     atom    2 type  1   force =     0.00767112    0.00766858    0.00766999
     atom    3 type  1   force =     0.00767074    0.00766619    0.00766631
     atom    4 type  1   force =     0.00766794    0.00767210    0.00767305
     atom    5 type  1   force =    -0.00767150   -0.00766801   -0.00766774
     atom    6 type  1   force =    -0.00766686   -0.00767075   -0.00767243
     atom    7 type  1   force =    -0.00767157   -0.00767154   -0.00767141
     atom    8 type  1   force =    -0.00766880   -0.00766844   -0.00766716

     Total force =     0.037574     Total SCF correction =     0.000000

     Entering Dynamics:    iteration =    21
                           time      =   0.0203 pico-seconds


ATOMIC_POSITIONS (alat)
Si      -0.126261143  -0.126260762  -0.126261591
Si       0.373738242   0.373738005  -0.126261379
Si       0.373738530  -0.126261712   0.373737996
Si      -0.126261475   0.373738621   0.373739124
Si       0.126261209   0.126261864   0.126262049
Si       0.626261905   0.626261118   0.126260986
Si       0.626261089   0.126261295   0.626261166
Si       0.126261643   0.626261572   0.626261649


     kinetic energy (Ekin) =     0.00259983 Ry
     temperature           =    39.09329713 K 
     Ekin + Etot (const)   =   -62.17579464 Ry

     Linear momentum :    0.0000000000   -0.0000000000   -0.0000000000

     Writing output data file pwscf.save

     second order wave-functions extrapolation
     NEW-OLD atomic charge density approx. for the potential

     total cpu time spent up to now is        1.4 secs

     per-process dynamical memory:     3.2 Mb

     Self-consistent Calculation

     iteration #  1     ecut=     8.00 Ry     beta=0.70
     Davidson diagonalization with overlap
     ethr =  1.00E-06,  avg # of iterations =  2.0

     Threshold (ethr) on eigenvalues was too large:
     Diagonalizing with lowered threshold

     Davidson diagonalization with overlap
     ethr =  3.67E-09,  avg # of iterations =  1.0

     total cpu time spent up to now is        1.4 secs

     total energy              =     -62.17804111 Ry
     Harris-Foulkes estimate   =     -62.17804083 Ry
     estimated scf accuracy    <       0.00000119 Ry

     iteration #  2     ecut=     8.00 Ry     beta=0.70
     Davidson diagonalization with overlap
     ethr =  3.71E-09,  avg # of iterations =  1.0

     total cpu time spent up to now is        1.4 secs

     total energy              =     -62.17804115 Ry
     Harris-Foulkes estimate   =     -62.17804111 Ry
     estimated scf accuracy    <       0.00000009 Ry

     iteration #  3     ecut=     8.00 Ry     beta=0.70
     Davidson diagonalization with overlap
     ethr =  2.93E-10,  avg # of iterations =  1.0

     total cpu time spent up to now is        1.4 secs

     End of self-consistent calculation

[...]
Si      -0.126593849  -0.126556956  -0.126618850
Si       0.373371879   0.373350835  -0.126605722
Si       0.373406961  -0.126665782   0.373324649
Si      -0.126633509   0.373423505   0.373451487
Si       0.126584839   0.126642398   0.126675930
Si       0.626657555   0.626584133   0.126547708
Si       0.626569523   0.126583080   0.626585760
Si       0.126636600   0.626638786   0.626639038


     kinetic energy (Ekin) =     0.00103656 Ry
     temperature           =    15.58658160 K 
     Ekin + Etot (const)   =   -62.17579126 Ry

     Linear momentum :    0.0000000000    0.0000000000   -0.0000000000

     Writing output data file pwscf.save

     second order wave-functions extrapolation
     NEW-OLD atomic charge density approx. for the potential

     total cpu time spent up to now is        5.8 secs

     per-process dynamical memory:     3.2 Mb

     Self-consistent Calculation

     iteration #  1     ecut=     8.00 Ry     beta=0.70
     Davidson diagonalization with overlap
     ethr =  1.00E-06,  avg # of iterations =  2.0

     Threshold (ethr) on eigenvalues was too large:
     Diagonalizing with lowered threshold

     Davidson diagonalization with overlap
     ethr =  1.82E-09,  avg # of iterations =  1.0

     total cpu time spent up to now is        5.8 secs

     total energy              =     -62.17717948 Ry
     Harris-Foulkes estimate   =     -62.17717934 Ry
     estimated scf accuracy    <       0.00000059 Ry

     iteration #  2     ecut=     8.00 Ry     beta=0.70
     Davidson diagonalization with overlap
     ethr =  1.85E-09,  avg # of iterations =  1.0

     total cpu time spent up to now is        5.8 secs

     total energy              =     -62.17717950 Ry
     Harris-Foulkes estimate   =     -62.17717949 Ry
     estimated scf accuracy    <       0.00000005 Ry

     iteration #  3     ecut=     8.00 Ry     beta=0.70
     Davidson diagonalization with overlap
     ethr =  1.46E-10,  avg # of iterations =  1.0

     total cpu time spent up to now is        5.8 secs

     End of self-consistent calculation

          k = 0.0000 0.0000 0.0000 (   437 PWs)   bands (ev):

    -5.2225  -1.0755  -1.0754  -1.0754  -0.9733  -0.9733  -0.9733   3.5717
     3.5717   3.5718   3.6337   3.6337   3.6337   6.6193   6.6193   6.8859

     highest occupied level (ev):     6.8859

!    total energy              =     -62.17717951 Ry
     Harris-Foulkes estimate   =     -62.17717951 Ry
     estimated scf accuracy    <          2.1E-10 Ry

     convergence has been achieved in   3 iterations

     Forces acting on atoms (Ry/au):

     atom    1 type  1   force =     0.01127847    0.01141765    0.01125868
     atom    2 type  1   force =     0.01123863    0.01113169    0.01122993
     atom    3 type  1   force =     0.01129748    0.01109280    0.01107554
     atom    4 type  1   force =     0.01118675    0.01136036    0.01143770
     atom    5 type  1   force =    -0.01133391   -0.01115090   -0.01107663
     atom    6 type  1   force =    -0.01111759   -0.01133250   -0.01142600
     atom    7 type  1   force =    -0.01133672   -0.01136388   -0.01135169
     atom    8 type  1   force =    -0.01121310   -0.01115521   -0.01114752

     Total force =     0.055119     Total SCF correction =     0.000013

     Entering Dynamics:    iteration =    97
                           time      =   0.0939 pico-seconds


ATOMIC_POSITIONS (alat)
Si      -0.126452425  -0.126412460  -0.126478345
Si       0.373511995   0.373488825  -0.126465074
Si       0.373548921  -0.126528814   0.373461019
Si      -0.126494458   0.373566614   0.373596520
Si       0.126442189   0.126504109   0.126539447
Si       0.626520133   0.626441405   0.126402800
Si       0.626426491   0.126440265   0.626443067
Si       0.126497155   0.626500056   0.626500565


     kinetic energy (Ekin) =     0.00138733 Ry
     temperature           =    20.86107631 K 
     Ekin + Etot (const)   =   -62.17579218 Ry

     Linear momentum :   -0.0000000000   -0.0000000000   -0.0000000000

     Writing output data file pwscf.save

     second order wave-functions extrapolation
     NEW-OLD atomic charge density approx. for the potential

     total cpu time spent up to now is        5.8 secs

     per-process dynamical memory:     3.2 Mb

     Self-consistent Calculation

     iteration #  1     ecut=     8.00 Ry     beta=0.70
     Davidson diagonalization with overlap
     ethr =  1.00E-06,  avg # of iterations =  2.0

     Threshold (ethr) on eigenvalues was too large:
     Diagonalizing with lowered threshold

     Davidson diagonalization with overlap
     ethr =  2.36E-09,  avg # of iterations =  1.0

     total cpu time spent up to now is        5.8 secs

     total energy              =     -62.17754983 Ry
     Harris-Foulkes estimate   =     -62.17754964 Ry
     estimated scf accuracy    <       0.00000077 Ry

     iteration #  2     ecut=     8.00 Ry     beta=0.70
     Davidson diagonalization with overlap
     ethr =  2.40E-09,  avg # of iterations =  1.0

     total cpu time spent up to now is        5.8 secs

     total energy              =     -62.17754985 Ry
     Harris-Foulkes estimate   =     -62.17754983 Ry
     estimated scf accuracy    <       0.00000006 Ry

     iteration #  3     ecut=     8.00 Ry     beta=0.70
     Davidson diagonalization with overlap
     ethr =  1.89E-10,  avg # of iterations =  4.0

     total cpu time spent up to now is        5.9 secs

     total energy              =     -62.17754986 Ry
     Harris-Foulkes estimate   =     -62.17754986 Ry
     estimated scf accuracy    <       0.00000001 Ry

     iteration #  4     ecut=     8.00 Ry     beta=0.70
     Davidson diagonalization with overlap
     ethr =  3.29E-11,  avg # of iterations =  4.0

     total cpu time spent up to now is        5.9 secs

     total energy              =     -62.17754986 Ry
     Harris-Foulkes estimate   =     -62.17754986 Ry
     estimated scf accuracy    <       0.00000001 Ry

     iteration #  5     ecut=     8.00 Ry     beta=0.70
     Davidson diagonalization with overlap
     ethr =  3.29E-11,  avg # of iterations =  1.0

     total cpu time spent up to now is        5.9 secs

     total energy              =     -62.17754986 Ry
     Harris-Foulkes estimate   =     -62.17754986 Ry
     estimated scf accuracy    <       0.00000002 Ry

     iteration #  6     ecut=     8.00 Ry     beta=0.70
     Davidson diagonalization with overlap
     ethr =  3.29E-11,  avg # of iterations =  1.0

     total cpu time spent up to now is        5.9 secs

     total energy              =     -62.17754986 Ry
     Harris-Foulkes estimate   =     -62.17754986 Ry
     estimated scf accuracy    <       0.00000001 Ry

     iteration #  7     ecut=     8.00 Ry     beta=0.70
     Davidson diagonalization with overlap
     ethr =  3.29E-11,  avg # of iterations =  4.0

     total cpu time spent up to now is        5.9 secs

     total energy              =     -62.17754986 Ry
     Harris-Foulkes estimate   =     -62.17754986 Ry
     estimated scf accuracy    <       0.00000001 Ry

     iteration #  8     ecut=     8.00 Ry     beta=0.70
     Davidson diagonalization with overlap
     ethr =  3.29E-11,  avg # of iterations =  1.0

     total cpu time spent up to now is        5.9 secs

     total energy              =     -62.17754986 Ry
     Harris-Foulkes estimate   =     -62.17754986 Ry
     estimated scf accuracy    <       0.00000001 Ry

     iteration #  9     ecut=     8.00 Ry     beta=0.70
     Davidson diagonalization with overlap
     ethr =  3.29E-11,  avg # of iterations =  1.0

     total cpu time spent up to now is        5.9 secs

     End of self-consistent calculation

          k = 0.0000 0.0000 0.0000 (   437 PWs)   bands (ev):

    -5.2223  -1.0709  -1.0709  -1.0709  -0.9774  -0.9774  -0.9774   3.5744
     3.5744   3.5745   3.6308   3.6308   3.6308   6.6269   6.6269   6.8703

     highest occupied level (ev):     6.8703

!    total energy              =     -62.17754986 Ry
     Harris-Foulkes estimate   =     -62.17754986 Ry
     estimated scf accuracy    <          6.9E-09 Ry

     convergence has been achieved in   9 iterations

     Forces acting on atoms (Ry/au):

     atom    1 type  1   force =     0.01032624    0.01047335    0.01031163
     atom    2 type  1   force =     0.01028838    0.01018000    0.01029040
     atom    3 type  1   force =     0.01035077    0.01013945    0.01010707
     atom    4 type  1   force =     0.01023593    0.01040893    0.01049237
     atom    5 type  1   force =    -0.01037860   -0.01018372   -0.01012556
     atom    6 type  1   force =    -0.01016745   -0.01040522   -0.01048226
     atom    7 type  1   force =    -0.01040762   -0.01039696   -0.01040190
     atom    8 type  1   force =    -0.01024765   -0.01021583   -0.01019175

     Total force =     0.050465     Total SCF correction =     0.000066

     Entering Dynamics:    iteration =    98
                           time      =   0.0948 pico-seconds


ATOMIC_POSITIONS (alat)
Si      -0.126295151  -0.126251887  -0.126322013
Si       0.373667903   0.373642439  -0.126308630
Si       0.373706768  -0.126376282   0.373612903
Si      -0.126339697   0.373725700   0.373757659
Si       0.126283609   0.126350189   0.126387423
Si       0.626367104   0.626282705   0.126241803
Si       0.626267484   0.126281491   0.626284408
Si       0.126341980   0.626345645   0.626346447


     kinetic energy (Ekin) =     0.00175669 Ry
     temperature           =    26.41522179 K 
     Ekin + Etot (const)   =   -62.17579316 Ry

     Linear momentum :    0.0000000000    0.0000000000    0.0000000000

     Writing output data file pwscf.save

     second order wave-functions extrapolation
     NEW-OLD atomic charge density approx. for the potential

     total cpu time spent up to now is        5.9 secs

     per-process dynamical memory:     3.2 Mb

     Self-consistent Calculation

     iteration #  1     ecut=     8.00 Ry     beta=0.70
     Davidson diagonalization with overlap
     ethr =  1.00E-06,  avg # of iterations =  2.0

     Threshold (ethr) on eigenvalues was too large:
     Diagonalizing with lowered threshold

     Davidson diagonalization with overlap
     ethr =  2.92E-09,  avg # of iterations =  1.0

     total cpu time spent up to now is        5.9 secs

     total energy              =     -62.17792330 Ry
     Harris-Foulkes estimate   =     -62.17792307 Ry
     estimated scf accuracy    <       0.00000095 Ry

     iteration #  2     ecut=     8.00 Ry     beta=0.70
     Davidson diagonalization with overlap
     ethr =  2.98E-09,  avg # of iterations =  1.0

     total cpu time spent up to now is        6.0 secs

     total energy              =     -62.17792333 Ry
     Harris-Foulkes estimate   =     -62.17792331 Ry
     estimated scf accuracy    <       0.00000008 Ry

     iteration #  3     ecut=     8.00 Ry     beta=0.70
     Davidson diagonalization with overlap
     ethr =  2.35E-10,  avg # of iterations =  4.0

     total cpu time spent up to now is        6.0 secs

     total energy              =     -62.17792335 Ry
     Harris-Foulkes estimate   =     -62.17792335 Ry
     estimated scf accuracy    <       0.00000002 Ry

     iteration #  4     ecut=     8.00 Ry     beta=0.70
     Davidson diagonalization with overlap
     ethr =  6.43E-11,  avg # of iterations =  1.0

     total cpu time spent up to now is        6.0 secs

     total energy              =     -62.17792334 Ry
     Harris-Foulkes estimate   =     -62.17792335 Ry
     estimated scf accuracy    <       0.00000002 Ry

     iteration #  5     ecut=     8.00 Ry     beta=0.70
     Davidson diagonalization with overlap
     ethr =  6.43E-11,  avg # of iterations =  1.0

     total cpu time spent up to now is        6.0 secs

     total energy              =     -62.17792334 Ry
     Harris-Foulkes estimate   =     -62.17792334 Ry
     estimated scf accuracy    <       0.00000001 Ry

     iteration #  6     ecut=     8.00 Ry     beta=0.70
     Davidson diagonalization with overlap
     ethr =  3.75E-11,  avg # of iterations =  5.0

     total cpu time spent up to now is        6.0 secs

     End of self-consistent calculation

          k = 0.0000 0.0000 0.0000 (   437 PWs)   bands (ev):

    -5.2221  -1.0658  -1.0658  -1.0658  -0.9820  -0.9819  -0.9819   3.5774
     3.5774   3.5775   3.6276   3.6276   3.6276   6.6354   6.6354   6.8529

     highest occupied level (ev):     6.8529

!    total energy              =     -62.17792334 Ry
     Harris-Foulkes estimate   =     -62.17792334 Ry
     estimated scf accuracy    <          5.9E-09 Ry

     convergence has been achieved in   6 iterations

     Forces acting on atoms (Ry/au):

     atom    1 type  1   force =     0.00926719    0.00941653    0.00924058
     atom    2 type  1   force =     0.00921980    0.00911361    0.00922881
     atom    3 type  1   force =     0.00928714    0.00906168    0.00903352
     atom    4 type  1   force =     0.00916979    0.00935374    0.00944206
     atom    5 type  1   force =    -0.00931887   -0.00911373   -0.00904645
     atom    6 type  1   force =    -0.00909766   -0.00934722   -0.00943176
     atom    7 type  1   force =    -0.00934907   -0.00933729   -0.00934135
     atom    8 type  1   force =    -0.00917832   -0.00914732   -0.00912540

     Total force =     0.045252     Total SCF correction =     0.000078

     Entering Dynamics:    iteration =    99
                           time      =   0.0958 pico-seconds


ATOMIC_POSITIONS (alat)
Si      -0.126123652  -0.126076861  -0.126151497
Si       0.373837963   0.373810043  -0.126138021
Si       0.373878871  -0.126209842   0.373778653
Si      -0.126170860   0.373899144   0.373933291
Si       0.126110725   0.126182280   0.126221512
Si       0.626200111   0.626109658   0.126066329
Si       0.626094126   0.126108385   0.626111410
Si       0.126172716   0.626177193   0.626178323


     kinetic energy (Ekin) =     0.00212918 Ry
     temperature           =    32.01630137 K 
     Ekin + Etot (const)   =   -62.17579415 Ry

     Linear momentum :   -0.0000000000   -0.0000000000   -0.0000000000

     Writing output data file pwscf.save

     second order wave-functions extrapolation
     NEW-OLD atomic charge density approx. for the potential

     total cpu time spent up to now is        6.0 secs

     per-process dynamical memory:     3.2 Mb

     Self-consistent Calculation

     iteration #  1     ecut=     8.00 Ry     beta=0.70
     Davidson diagonalization with overlap
     ethr =  1.00E-06,  avg # of iterations =  2.0

     Threshold (ethr) on eigenvalues was too large:
     Diagonalizing with lowered threshold

     Davidson diagonalization with overlap
     ethr =  3.49E-09,  avg # of iterations =  1.0

     total cpu time spent up to now is        6.0 secs

     total energy              =     -62.17828408 Ry
     Harris-Foulkes estimate   =     -62.17828382 Ry
     estimated scf accuracy    <       0.00000114 Ry

     iteration #  2     ecut=     8.00 Ry     beta=0.70
     Davidson diagonalization with overlap
     ethr =  3.57E-09,  avg # of iterations =  1.0

     total cpu time spent up to now is        6.0 secs

     total energy              =     -62.17828412 Ry
     Harris-Foulkes estimate   =     -62.17828409 Ry
     estimated scf accuracy    <       0.00000009 Ry

     iteration #  3     ecut=     8.00 Ry     beta=0.70
     Davidson diagonalization with overlap
     ethr =  2.80E-10,  avg # of iterations =  1.0

     total cpu time spent up to now is        6.1 secs

     End of self-consistent calculation

          k = 0.0000 0.0000 0.0000 (   437 PWs)   bands (ev):

    -5.2219  -1.0603  -1.0603  -1.0603  -0.9870  -0.9870  -0.9870   3.5807
     3.5807   3.5807   3.6241   3.6241   3.6241   6.6447   6.6447   6.8340

     highest occupied level (ev):     6.8340

!    total energy              =     -62.17828413 Ry
     Harris-Foulkes estimate   =     -62.17828413 Ry
     estimated scf accuracy    <          4.7E-10 Ry

     convergence has been achieved in   3 iterations

     Forces acting on atoms (Ry/au):

     atom    1 type  1   force =     0.00810586    0.00825482    0.00806685
     atom    2 type  1   force =     0.00804201    0.00793871    0.00805838
     atom    3 type  1   force =     0.00811909    0.00787746    0.00785388
     atom    4 type  1   force =     0.00799903    0.00819574    0.00828758
     atom    5 type  1   force =    -0.00815702   -0.00794216   -0.00786298
     atom    6 type  1   force =    -0.00791704   -0.00817583   -0.00827292
     atom    7 type  1   force =    -0.00818799   -0.00817729   -0.00817789
     atom    8 type  1   force =    -0.00800392   -0.00797146   -0.00795291

     Total force =     0.039523     Total SCF correction =     0.000023

     Entering Dynamics:    iteration =   100
                           time      =   0.0968 pico-seconds


ATOMIC_POSITIONS (alat)
Si      -0.125939712  -0.125889164  -0.125968599
Si       0.374020367   0.373989832  -0.125955043
Si       0.374063436  -0.126031310   0.373956458
Si      -0.125989745   0.374085168   0.374121643
Si       0.125925321   0.126002180   0.126043533
Si       0.626020966   0.625924061   0.125878156
Si       0.625908201   0.125922727   0.625925860
Si       0.125991168   0.625996505   0.625997992


     kinetic energy (Ekin) =     0.00248899 Ry
     temperature           =    37.42658978 K 
     Ekin + Etot (const)   =   -62.17579514 Ry

     Linear momentum :   -0.0000000000    0.0000000000    0.0000000000

     The maximum number of steps has been reached.

     End of molecular dynamics calculation

     diffusion coefficients :
     atom     1   D =       0.00000013 cm^2/s
     atom     2   D =       0.00000013 cm^2/s
     atom     3   D =       0.00000014 cm^2/s
     atom     4   D =       0.00000013 cm^2/s
     atom     5   D =       0.00000013 cm^2/s
     atom     6   D =       0.00000013 cm^2/s
     atom     7   D =       0.00000013 cm^2/s
     atom     8   D =       0.00000013 cm^2/s

     < D > =       0.00000013 cm^2/s

     Writing output data file pwscf.save
 
     init_run     :      0.02s CPU      0.02s WALL (       1 calls)
     electrons    :      3.18s CPU      3.30s WALL (     100 calls)
     update_pot   :      0.35s CPU      0.38s WALL (      99 calls)
     forces       :      0.20s CPU      0.22s WALL (     100 calls)

     Called by init_run:
     wfcinit      :      0.01s CPU      0.01s WALL (       1 calls)
     potinit      :      0.00s CPU      0.00s WALL (       1 calls)

     Called by electrons:
     c_bands      :      2.36s CPU      2.46s WALL (     404 calls)
     sum_band     :      0.44s CPU      0.44s WALL (     404 calls)
     v_of_rho     :      0.16s CPU      0.16s WALL (     405 calls)
     mix_rho      :      0.08s CPU      0.08s WALL (     404 calls)

     Called by c_bands:
     init_us_2    :      0.05s CPU      0.05s WALL (     809 calls)
     cegterg      :      2.23s CPU      2.33s WALL (     404 calls)

     Called by sum_band:

     Called by *egterg:
     h_psi        :      1.51s CPU      1.59s WALL (    1013 calls)
     g_psi        :      0.02s CPU      0.02s WALL (     608 calls)
     cdiaghg      :      0.44s CPU      0.43s WALL (     814 calls)

     Called by h_psi:
     add_vuspsi   :      0.07s CPU      0.08s WALL (    1013 calls)

     General routines
     calbec       :      0.13s CPU      0.14s WALL (    1511 calls)
     fft          :      0.11s CPU      0.14s WALL (    2017 calls)
     fftw         :      1.49s CPU      1.55s WALL (   34198 calls)
     davcio       :      0.02s CPU      0.03s WALL (    1451 calls)
 
     Parallel routines
     fft_scatter  :      0.41s CPU      0.46s WALL (   36215 calls)
 
     PWSCF        :     5.75s CPU         6.08s WALL

 
   This run was terminated on:  11:19:35  15Jun2016            

=------------------------------------------------------------------------------=
   JOB DONE.
=------------------------------------------------------------------------------=
