
     Program PWSCF v.5.4.0 (svn rev. 12828M) starts on 23Aug2016 at 14:30:50 

     This program is part of the open-source Quantum ESPRESSO suite
     for quantum simulation of materials; please cite
         "P. Giannozzi et al., J. Phys.:Condens. Matter 21 395502 (2009);
          URL http://www.quantum-espresso.org", 
     in publications or presentations arising from this work. More details at
     http://www.quantum-espresso.org/quote
 
           HOST :    x86_64-pc-linux-gnu
           ARCH :    x86_64
             CC :    icc
            CPP :    cpp
            F90 :    ifort
            F77 :    ifort
         DFLAGS :    -D__INTEL -D__FFTW -D__MPI -D__PARA -D__HDF5
      BLAS LIBS :    -lmkl_intel_lp64  -lmkl_sequential -lmkl_core
    LAPACK LIBS :    
       FFT LIBS :    
      MASS LIBS :    

     Parallel version (MPI), running on     2 processors
     R & G space division:  proc/nbgrp/npool/nimage =       2
     Waiting for input...
     Reading input from standard input
     Message from routine read_cards :
     DEPRECATED: no units specified in ATOMIC_POSITIONS card
     Message from routine read_cards :
     ATOMIC_POSITIONS: units set to alat

     Current dimensions of program PWSCF are:
     Max number of different atomic species (ntypx) = 10
     Max number of k-points (npk) =  40000
     Max angular momentum in pseudopotentials (lmaxx) =  3

     Subspace diagonalization in iterative solution of the eigenvalue problem:
     a serial algorithm will be used

     Found symmetry operation: I + ( -0.5000 -0.5000  0.0000)
     This is a supercell, fractional translations are disabled
 
     Parallelization info
     --------------------
     sticks:   dense  smooth     PW     G-vecs:    dense   smooth      PW
     Min         130     130     34                 1618     1618     218
     Max         131     131     35                 1621     1621     219
     Sum         261     261     69                 3239     3239     437
 


     bravais-lattice index     =            1
     lattice parameter (alat)  =      10.1800  a.u.
     unit-cell volume          =    1054.9778 (a.u.)^3
     number of atoms/cell      =            8
     number of atomic types    =            1
     number of electrons       =        32.00
     number of Kohn-Sham states=           16
     kinetic-energy cutoff     =       8.0000  Ry
     charge density cutoff     =      32.0000  Ry
     convergence threshold     =      1.0E-08
     mixing beta               =       0.7000
     number of iterations used =            8  plain     mixing
     Exchange-correlation      =  SLA  PZ   NOGX NOGC ( 1  1  0  0 0 0)
     nstep                     =          100


     celldm(1)=  10.180000  celldm(2)=   0.000000  celldm(3)=   0.000000
     celldm(4)=   0.000000  celldm(5)=   0.000000  celldm(6)=   0.000000

     crystal axes: (cart. coord. in units of alat)
               a(1) = (   1.000000   0.000000   0.000000 )  
               a(2) = (   0.000000   1.000000   0.000000 )  
               a(3) = (   0.000000   0.000000   1.000000 )  

     reciprocal axes: (cart. coord. in units 2 pi/alat)
               b(1) = (  1.000000  0.000000  0.000000 )  
               b(2) = (  0.000000  1.000000  0.000000 )  
               b(3) = (  0.000000  0.000000  1.000000 )  


     PseudoPot. # 1 for Si read from file:
     /home/nvarini/espresso_hdf5/espresso/pseudo/Si.pz-vbc.UPF
     MD5 check sum: 6dfa03ddd5817404712e03e4d12deb78
     Pseudo is Norm-conserving, Zval =  4.0
     Generated by new atomic code, or converted to UPF format
     Using radial grid of  431 points,  2 beta functions with: 
                l(1) =   0
                l(2) =   1

     atomic species   valence    mass     pseudopotential
        Si             4.00    28.08600     Si( 1.00)

     No symmetry found



   Cartesian axes

     site n.     atom                  positions (alat units)
         1           Si  tau(   1) = (  -0.1230000  -0.1230000  -0.1230000  )
         2           Si  tau(   2) = (   0.3770000   0.3770000  -0.1230000  )
         3           Si  tau(   3) = (   0.3770000  -0.1230000   0.3770000  )
         4           Si  tau(   4) = (  -0.1230000   0.3770000   0.3770000  )
         5           Si  tau(   5) = (   0.1230000   0.1230000   0.1230000  )
         6           Si  tau(   6) = (   0.6230000   0.6230000   0.1230000  )
         7           Si  tau(   7) = (   0.6230000   0.1230000   0.6230000  )
         8           Si  tau(   8) = (   0.1230000   0.6230000   0.6230000  )

     number of k points=     1
                       cart. coord. in units 2pi/alat
        k(    1) = (   0.0000000   0.0000000   0.0000000), wk =   2.0000000

     Dense  grid:     3239 G-vectors     FFT dimensions: (  20,  20,  20)

     Estimated max dynamical RAM per process >       1.00Mb

     Estimated total allocated dynamical RAM >       2.01Mb

     Initial potential from superposition of free atoms

     starting charge   31.99603, renormalised to   32.00000
     Starting wfc are   32 randomized atomic wfcs

     total cpu time spent up to now is        0.0 secs

     per-process dynamical memory:     2.5 Mb

     Self-consistent Calculation

     iteration #  1     ecut=     8.00 Ry     beta=0.70
     Davidson diagonalization with overlap
     ethr =  1.00E-02,  avg # of iterations =  2.0

     total cpu time spent up to now is        0.0 secs

     total energy              =     -62.14827495 Ry
     Harris-Foulkes estimate   =     -62.29598363 Ry
     estimated scf accuracy    <       0.43489895 Ry

     iteration #  2     ecut=     8.00 Ry     beta=0.70
     Davidson diagonalization with overlap
     ethr =  1.36E-03,  avg # of iterations =  1.0

     total cpu time spent up to now is        0.1 secs

     total energy              =     -62.17403820 Ry
     Harris-Foulkes estimate   =     -62.17575980 Ry
     estimated scf accuracy    <       0.01656751 Ry

     iteration #  3     ecut=     8.00 Ry     beta=0.70
     Davidson diagonalization with overlap
     ethr =  5.18E-05,  avg # of iterations =  2.0

     total cpu time spent up to now is        0.1 secs

     total energy              =     -62.17572880 Ry
     Harris-Foulkes estimate   =     -62.17577478 Ry
     estimated scf accuracy    <       0.00038251 Ry

     iteration #  4     ecut=     8.00 Ry     beta=0.70
     Davidson diagonalization with overlap
     ethr =  1.20E-06,  avg # of iterations =  2.0

     total cpu time spent up to now is        0.1 secs

     total energy              =     -62.17577905 Ry
     Harris-Foulkes estimate   =     -62.17578404 Ry
     estimated scf accuracy    <       0.00001209 Ry

     iteration #  5     ecut=     8.00 Ry     beta=0.70
     Davidson diagonalization with overlap
     ethr =  3.78E-08,  avg # of iterations =  7.0

     total cpu time spent up to now is        0.1 secs

     total energy              =     -62.17578665 Ry
     Harris-Foulkes estimate   =     -62.17578759 Ry
     estimated scf accuracy    <       0.00000284 Ry

     iteration #  6     ecut=     8.00 Ry     beta=0.70
     Davidson diagonalization with overlap
     ethr =  8.87E-09,  avg # of iterations =  5.0

     total cpu time spent up to now is        0.1 secs

     total energy              =     -62.17578706 Ry
     Harris-Foulkes estimate   =     -62.17578731 Ry
     estimated scf accuracy    <       0.00000060 Ry

     iteration #  7     ecut=     8.00 Ry     beta=0.70
     Davidson diagonalization with overlap
     ethr =  1.86E-09,  avg # of iterations =  5.0

     total cpu time spent up to now is        0.1 secs

     total energy              =     -62.17578714 Ry
     Harris-Foulkes estimate   =     -62.17578722 Ry
     estimated scf accuracy    <       0.00000017 Ry

     iteration #  8     ecut=     8.00 Ry     beta=0.70
     Davidson diagonalization with overlap
     ethr =  5.27E-10,  avg # of iterations =  5.0

     total cpu time spent up to now is        0.1 secs

     total energy              =     -62.17578717 Ry
     Harris-Foulkes estimate   =     -62.17578720 Ry
     estimated scf accuracy    <       0.00000009 Ry

     iteration #  9     ecut=     8.00 Ry     beta=0.70
     Davidson diagonalization with overlap
     ethr =  2.66E-10,  avg # of iterations =  4.0

     total cpu time spent up to now is        0.1 secs

     End of self-consistent calculation

          k = 0.0000 0.0000 0.0000 (   437 PWs)   bands (ev):

    -5.2234  -1.0941  -1.0941  -1.0940  -0.9566  -0.9566  -0.9566   3.5685
     3.5685   3.5685   3.6376   3.6377   3.6377   6.4884   6.8187   6.8187

     highest occupied level (ev):     6.8187

!    total energy              =     -62.17578719 Ry
     Harris-Foulkes estimate   =     -62.17578719 Ry
     estimated scf accuracy    <          2.8E-09 Ry

     convergence has been achieved in   9 iterations

     Forces acting on atoms (Ry/au):

     atom    1 type  1   force =    -0.01508118   -0.01509121   -0.01507434
     atom    2 type  1   force =    -0.01508733   -0.01508063   -0.01509442
     atom    3 type  1   force =    -0.01509027   -0.01508244   -0.01509387
     atom    4 type  1   force =    -0.01508575   -0.01509093   -0.01508269
     atom    5 type  1   force =     0.01508719    0.01509410    0.01508874
     atom    6 type  1   force =     0.01508431    0.01508103    0.01508842
     atom    7 type  1   force =     0.01508590    0.01508508    0.01508906
     atom    8 type  1   force =     0.01508713    0.01508500    0.01507910

     Total force =     0.073907     Total SCF correction =     0.000041

     Molecular Dynamics Calculation
     mass Si               =    28.09
     Time step             =    20.00 a.u.,  0.9676 femto-seconds

     Entering Dynamics:    iteration =     1
                           time      =   0.0010 pico-seconds


ATOMIC_POSITIONS (alat)
Si      -0.123011574  -0.123011582  -0.123011569
Si       0.376988421   0.376988426  -0.123011585
Si       0.376988419  -0.123011575   0.376988416
Si      -0.123011578   0.376988418   0.376988424
Si       0.123011579   0.123011584   0.123011580
Si       0.623011577   0.623011574   0.123011580
Si       0.623011578   0.123011577   0.623011580
Si       0.123011579   0.623011577   0.623011573


     kinetic energy (Ekin) =     0.00000000 Ry
     temperature           =     0.00000000 K 
     Ekin + Etot (const)   =   -62.17578719 Ry

     Linear momentum :    0.0000000000    0.0000000000    0.0000000000

     Writing output data file pwscf.save
     NEW-OLD atomic charge density approx. for the potential

     total cpu time spent up to now is        0.2 secs

     per-process dynamical memory:     3.0 Mb

     Self-consistent Calculation

     iteration #  1     ecut=     8.00 Ry     beta=0.70
     Davidson diagonalization with overlap
     ethr =  1.00E-06,  avg # of iterations =  2.0

     Threshold (ethr) on eigenvalues was too large:
     Diagonalizing with lowered threshold

     Davidson diagonalization with overlap
     ethr =  2.16E-11,  avg # of iterations =  5.0

     total cpu time spent up to now is        0.2 secs

     total energy              =     -62.17582973 Ry
     Harris-Foulkes estimate   =     -62.17582974 Ry
     estimated scf accuracy    <       0.00000001 Ry

     iteration #  2     ecut=     8.00 Ry     beta=0.70
     Davidson diagonalization with overlap
     ethr =  4.49E-11,  avg # of iterations =  5.0

     total cpu time spent up to now is        0.2 secs

     total energy              =     -62.17582973 Ry
     Harris-Foulkes estimate   =     -62.17582974 Ry
     estimated scf accuracy    <       0.00000002 Ry

     iteration #  3     ecut=     8.00 Ry     beta=0.70
     Davidson diagonalization with overlap
     ethr =  4.49E-11,  avg # of iterations =  4.0

     total cpu time spent up to now is        0.2 secs

     End of self-consistent calculation

          k = 0.0000 0.0000 0.0000 (   437 PWs)   bands (ev):

    -5.2234  -1.0936  -1.0936  -1.0936  -0.9570  -0.9570  -0.9570   3.5687
     3.5687   3.5687   3.6374   3.6374   3.6374   6.4896   6.8180   6.8180

     highest occupied level (ev):     6.8180

!    total energy              =     -62.17582973 Ry
     Harris-Foulkes estimate   =     -62.17582974 Ry
     estimated scf accuracy    <          1.2E-09 Ry

     convergence has been achieved in   3 iterations

     Forces acting on atoms (Ry/au):

     atom    1 type  1   force =    -0.01499524   -0.01499394   -0.01499719
     atom    2 type  1   force =    -0.01499474   -0.01499684   -0.01499824
     atom    3 type  1   force =    -0.01499291   -0.01499515   -0.01499163
     atom    4 type  1   force =    -0.01499640   -0.01499373   -0.01499233
     atom    5 type  1   force =     0.01499465    0.01499458    0.01499548
     atom    6 type  1   force =     0.01499427    0.01499477    0.01499102
     atom    7 type  1   force =     0.01499444    0.01499708    0.01499618
     atom    8 type  1   force =     0.01499594    0.01499325    0.01499671

     Total force =     0.073460     Total SCF correction =     0.000039

     Entering Dynamics:    iteration =     2
                           time      =   0.0019 pico-seconds


ATOMIC_POSITIONS (alat)
Si      -0.123046166  -0.123046179  -0.123046158
Si       0.376953826   0.376953833  -0.123046191
Si       0.376953824  -0.123046167   0.376953820
Si      -0.123046174   0.376953822   0.376953837
Si       0.123046174   0.123046184   0.123046178
Si       0.623046169   0.623046165   0.123046170
Si       0.623046172   0.123046174   0.623046179
Si       0.123046176   0.623046168   0.623046165


     kinetic energy (Ekin) =     0.00004242 Ry
     temperature           =     0.63783325 K 
     Ekin + Etot (const)   =   -62.17578732 Ry

     Linear momentum :    0.0000000000    0.0000000000    0.0000000000

     Writing output data file pwscf.save

     first order wave-functions extrapolation
     NEW-OLD atomic charge density approx. for the potential

     total cpu time spent up to now is        0.3 secs

     per-process dynamical memory:     3.2 Mb

     Self-consistent Calculation

     iteration #  1     ecut=     8.00 Ry     beta=0.70
     Davidson diagonalization with overlap
     ethr =  1.00E-06,  avg # of iterations =  2.0

     Threshold (ethr) on eigenvalues was too large:
     Diagonalizing with lowered threshold

     Davidson diagonalization with overlap
     ethr =  1.46E-10,  avg # of iterations =  5.0

     total cpu time spent up to now is        0.3 secs

     total energy              =     -62.17595532 Ry
     Harris-Foulkes estimate   =     -62.17595532 Ry
     estimated scf accuracy    <       0.00000006 Ry

     iteration #  2     ecut=     8.00 Ry     beta=0.70
     Davidson diagonalization with overlap
     ethr =  1.79E-10,  avg # of iterations =  4.0

     total cpu time spent up to now is        0.3 secs

     total energy              =     -62.17595532 Ry
     Harris-Foulkes estimate   =     -62.17595533 Ry
     estimated scf accuracy    <       0.00000003 Ry

     iteration #  3     ecut=     8.00 Ry     beta=0.70
     Davidson diagonalization with overlap
     ethr =  8.24E-11,  avg # of iterations =  4.0

     total cpu time spent up to now is        0.3 secs

     total energy              =     -62.17595532 Ry
     Harris-Foulkes estimate   =     -62.17595533 Ry
     estimated scf accuracy    <       0.00000002 Ry

     iteration #  4     ecut=     8.00 Ry     beta=0.70
     Davidson diagonalization with overlap
     ethr =  6.19E-11,  avg # of iterations =  4.0

     total cpu time spent up to now is        0.3 secs

     End of self-consistent calculation

          k = 0.0000 0.0000 0.0000 (   437 PWs)   bands (ev):

    -5.2233  -1.0923  -1.0923  -1.0923  -0.9582  -0.9581  -0.9581   3.5692
     3.5692   3.5692   3.6369   3.6369   3.6369   6.4934   6.8161   6.8161

     highest occupied level (ev):     6.8161

!    total energy              =     -62.17595533 Ry
     Harris-Foulkes estimate   =     -62.17595533 Ry
     estimated scf accuracy    <          3.5E-10 Ry

     convergence has been achieved in   4 iterations

     Forces acting on atoms (Ry/au):

     atom    1 type  1   force =    -0.01472070   -0.01472299   -0.01472509
     atom    2 type  1   force =    -0.01472478   -0.01472440   -0.01472323
     atom    3 type  1   force =    -0.01472486   -0.01472356   -0.01472188
     atom    4 type  1   force =    -0.01472185   -0.01472130   -0.01472171
     atom    5 type  1   force =     0.01472185    0.01472410    0.01472374
     atom    6 type  1   force =     0.01472327    0.01472279    0.01472343
     atom    7 type  1   force =     0.01472422    0.01472156    0.01472172
     atom    8 type  1   force =     0.01472285    0.01472381    0.01472302

     Total force =     0.072128     Total SCF correction =     0.000021

     Entering Dynamics:    iteration =     3
                           time      =   0.0029 pico-seconds


ATOMIC_POSITIONS (alat)
Si      -0.123103352  -0.123103375  -0.123103349
Si       0.376896629   0.376896638  -0.123103396
Si       0.376896628  -0.123103359   0.376896628
Si      -0.123103368   0.376896629   0.376896652
Si       0.123103366   0.123103385   0.123103375
Si       0.623103360   0.623103354   0.123103360
Si       0.623103366   0.123103368   0.623103375
Si       0.123103371   0.623103360   0.623103356


     kinetic energy (Ekin) =     0.00016763 Ry
     temperature           =     2.52061893 K 
     Ekin + Etot (const)   =   -62.17578770 Ry

     Linear momentum :   -0.0000000000    0.0000000000   -0.0000000000

     Writing output data file pwscf.save

     second order wave-functions extrapolation
     NEW-OLD atomic charge density approx. for the potential

     total cpu time spent up to now is        0.4 secs

     per-process dynamical memory:     3.2 Mb

     Self-consistent Calculation

     iteration #  1     ecut=     8.00 Ry     beta=0.70
     Davidson diagonalization with overlap
     ethr =  1.00E-06,  avg # of iterations =  2.0

     Threshold (ethr) on eigenvalues was too large:
     Diagonalizing with lowered threshold

     Davidson diagonalization with overlap
     ethr =  4.10E-10,  avg # of iterations =  1.0

     total cpu time spent up to now is        0.4 secs

     total energy              =     -62.17615792 Ry
     Harris-Foulkes estimate   =     -62.17615789 Ry
     estimated scf accuracy    <       0.00000013 Ry

     iteration #  2     ecut=     8.00 Ry     beta=0.70
     Davidson diagonalization with overlap
     ethr =  4.21E-10,  avg # of iterations =  1.0

     total cpu time spent up to now is        0.4 secs

     total energy              =     -62.17615792 Ry
     Harris-Foulkes estimate   =     -62.17615792 Ry
     estimated scf accuracy    <       0.00000001 Ry

     iteration #  3     ecut=     8.00 Ry     beta=0.70
     Davidson diagonalization with overlap
     ethr =  3.22E-11,  avg # of iterations =  1.0

     total cpu time spent up to now is        0.4 secs

     End of self-consistent calculation

          k = 0.0000 0.0000 0.0000 (   437 PWs)   bands (ev):

    -5.2232  -1.0901  -1.0901  -1.0901  -0.9601  -0.9600  -0.9600   3.5701
     3.5701   3.5701   3.6359   3.6359   3.6359   6.4996   6.8129   6.8129

     highest occupied level (ev):     6.8129

!    total energy              =     -62.17615792 Ry
     Harris-Foulkes estimate   =     -62.17615792 Ry
     estimated scf accuracy    <          6.8E-11 Ry

     convergence has been achieved in   3 iterations

     Forces acting on atoms (Ry/au):

     atom    1 type  1   force =    -0.01427023   -0.01427609   -0.01427412
     atom    2 type  1   force =    -0.01427630   -0.01427420   -0.01427396
     atom    3 type  1   force =    -0.01428072   -0.01427424   -0.01427637
     atom    4 type  1   force =    -0.01427055   -0.01427315   -0.01427308
     atom    5 type  1   force =     0.01427241    0.01427526    0.01427584
     atom    6 type  1   force =     0.01427544    0.01427556    0.01427790
     atom    7 type  1   force =     0.01427556    0.01427037    0.01427067
     atom    8 type  1   force =     0.01427439    0.01427650    0.01427312

     Total force =     0.069930     Total SCF correction =     0.000008

     Entering Dynamics:    iteration =     4
                           time      =   0.0039 pico-seconds


ATOMIC_POSITIONS (alat)
Si      -0.123182443  -0.123182484  -0.123182450
Si       0.376817519   0.376817534  -0.123182511
Si       0.376817511  -0.123182461   0.376817522
Si      -0.123182466   0.376817528   0.376817558
Si       0.123182465   0.123182498   0.123182485
Si       0.623182464   0.623182455   0.123182466
Si       0.623182473   0.123182466   0.623182475
Si       0.123182477   0.623182465   0.623182455


     kinetic energy (Ekin) =     0.00036962 Ry
     temperature           =     5.55789701 K 
     Ekin + Etot (const)   =   -62.17578831 Ry

     Linear momentum :    0.0000000000   -0.0000000000   -0.0000000000

     Writing output data file pwscf.save

     second order wave-functions extrapolation
     NEW-OLD atomic charge density approx. for the potential

     total cpu time spent up to now is        0.4 secs

     per-process dynamical memory:     3.2 Mb

     Self-consistent Calculation

     iteration #  1     ecut=     8.00 Ry     beta=0.70
     Davidson diagonalization with overlap
     ethr =  1.00E-06,  avg # of iterations =  1.0

     Threshold (ethr) on eigenvalues was too large:
     Diagonalizing with lowered threshold

     Davidson diagonalization with overlap
     ethr =  7.70E-10,  avg # of iterations =  1.0

     total cpu time spent up to now is        0.4 secs

     total energy              =     -62.17642781 Ry
     Harris-Foulkes estimate   =     -62.17642776 Ry
     estimated scf accuracy    <       0.00000026 Ry

     iteration #  2     ecut=     8.00 Ry     beta=0.70
     Davidson diagonalization with overlap
     ethr =  7.99E-10,  avg # of iterations =  1.0

     total cpu time spent up to now is        0.4 secs

     total energy              =     -62.17642782 Ry
     Harris-Foulkes estimate   =     -62.17642781 Ry
     estimated scf accuracy    <       0.00000002 Ry

     iteration #  3     ecut=     8.00 Ry     beta=0.70
     Davidson diagonalization with overlap
     ethr =  6.17E-11,  avg # of iterations =  1.0

     total cpu time spent up to now is        0.5 secs

     End of self-consistent calculation

          k = 0.0000 0.0000 0.0000 (   437 PWs)   bands (ev):

    -5.2230  -1.0871  -1.0871  -1.0871  -0.9627  -0.9627  -0.9627   3.5713
     3.5713   3.5713   3.6345   3.6345   3.6345   6.5082   6.8085   6.8085

     highest occupied level (ev):     6.8085

!    total energy              =     -62.17642782 Ry
     Harris-Foulkes estimate   =     -62.17642782 Ry
     estimated scf accuracy    <          9.8E-11 Ry

     convergence has been achieved in   3 iterations

     Forces acting on atoms (Ry/au):

     atom    1 type  1   force =    -0.01365133   -0.01365835   -0.01365266
     atom    2 type  1   force =    -0.01365641   -0.01365381   -0.01365415
     atom    3 type  1   force =    -0.01366333   -0.01365512   -0.01366032
     atom    4 type  1   force =    -0.01365049   -0.01365492   -0.01365479
     atom    5 type  1   force =     0.01365324    0.01365707    0.01365652
     atom    6 type  1   force =     0.01365629    0.01365713    0.01366101
     atom    7 type  1   force =     0.01365590    0.01365028    0.01365090
     atom    8 type  1   force =     0.01365615    0.01365772    0.01365350

     Total force =     0.066898     Total SCF correction =     0.000004

     Entering Dynamics:    iteration =     5
                           time      =   0.0048 pico-seconds


ATOMIC_POSITIONS (alat)
Si      -0.123282488  -0.123282557  -0.123282507
Si       0.376717447   0.376717472  -0.123282584
Si       0.376717422  -0.123282523   0.376717448
Si      -0.123282517   0.376717467   0.376717506
Si       0.123282522   0.123282573   0.123282557
Si       0.623282529   0.623282519   0.123282540
Si       0.623282540   0.123282516   0.623282529
Si       0.123282545   0.623282533   0.623282511


     kinetic energy (Ekin) =     0.00063870 Ry
     temperature           =     9.60410804 K 
     Ekin + Etot (const)   =   -62.17578911 Ry

     Linear momentum :    0.0000000000   -0.0000000000   -0.0000000000

     Writing output data file pwscf.save

     second order wave-functions extrapolation
     NEW-OLD atomic charge density approx. for the potential

     total cpu time spent up to now is        0.5 secs

     per-process dynamical memory:     3.2 Mb

     Self-consistent Calculation

     iteration #  1     ecut=     8.00 Ry     beta=0.70
     Davidson diagonalization with overlap
     ethr =  1.00E-06,  avg # of iterations =  1.0

     Threshold (ethr) on eigenvalues was too large:
     Diagonalizing with lowered threshold

     Davidson diagonalization with overlap
     ethr =  1.23E-09,  avg # of iterations =  1.0

     total cpu time spent up to now is        0.5 secs

     total energy              =     -62.17675211 Ry
     Harris-Foulkes estimate   =     -62.17675203 Ry
     estimated scf accuracy    <       0.00000041 Ry

     iteration #  2     ecut=     8.00 Ry     beta=0.70
     Davidson diagonalization with overlap
     ethr =  1.28E-09,  avg # of iterations =  1.0

     total cpu time spent up to now is        0.5 secs

     total energy              =     -62.17675213 Ry
     Harris-Foulkes estimate   =     -62.17675212 Ry
     estimated scf accuracy    <       0.00000003 Ry

     iteration #  3     ecut=     8.00 Ry     beta=0.70
     Davidson diagonalization with overlap
     ethr =  9.91E-11,  avg # of iterations =  1.0

     total cpu time spent up to now is        0.5 secs

     End of self-consistent calculation

          k = 0.0000 0.0000 0.0000 (   437 PWs)   bands (ev):

    -5.2228  -1.0833  -1.0833  -1.0833  -0.9660  -0.9660  -0.9660   3.5728
     3.5728   3.5729   3.6328   3.6328   3.6328   6.5191   6.8029   6.8029

     highest occupied level (ev):     6.8029

!    total energy              =     -62.17675213 Ry
     Harris-Foulkes estimate   =     -62.17675213 Ry
     estimated scf accuracy    <          1.5E-10 Ry

     convergence has been achieved in   3 iterations

     Forces acting on atoms (Ry/au):

     atom    1 type  1   force =    -0.01287269   -0.01287867   -0.01287196
     atom    2 type  1   force =    -0.01287543   -0.01287340   -0.01287398
     atom    3 type  1   force =    -0.01288307   -0.01287530   -0.01288139
     atom    4 type  1   force =    -0.01287161   -0.01287551   -0.01287541
     atom    5 type  1   force =     0.01287424    0.01287739    0.01287527
     atom    6 type  1   force =     0.01287615    0.01287739    0.01288205
     atom    7 type  1   force =     0.01287536    0.01287032    0.01287166
     atom    8 type  1   force =     0.01287705    0.01287779    0.01287376

     Total force =     0.063078     Total SCF correction =     0.000004

     Entering Dynamics:    iteration =     6
                           time      =   0.0058 pico-seconds


ATOMIC_POSITIONS (alat)
Si      -0.123402291  -0.123402399  -0.123402322
Si       0.376597612   0.376597650  -0.123402418
Si       0.376597558  -0.123402348   0.376597602
Si      -0.123402325   0.376597643   0.376597690
Si       0.123402339   0.123402414   0.123402392
Si       0.623402358   0.623402349   0.123402388
Si       0.623402371   0.123402322   0.623402340
Si       0.123402378   0.623402369   0.623402329


     kinetic energy (Ekin) =     0.00096205 Ry
     temperature           =    14.46618912 K 
     Ekin + Etot (const)   =   -62.17579008 Ry

     Linear momentum :    0.0000000000   -0.0000000000   -0.0000000000

     Writing output data file pwscf.save

     second order wave-functions extrapolation
     NEW-OLD atomic charge density approx. for the potential

     total cpu time spent up to now is        0.5 secs

     per-process dynamical memory:     3.2 Mb

     Self-consistent Calculation

     iteration #  1     ecut=     8.00 Ry     beta=0.70
     Davidson diagonalization with overlap
     ethr =  1.00E-06,  avg # of iterations =  2.0

     Threshold (ethr) on eigenvalues was too large:
     Diagonalizing with lowered threshold

     Davidson diagonalization with overlap
     ethr =  1.79E-09,  avg # of iterations =  1.0

     total cpu time spent up to now is        0.6 secs

     total energy              =     -62.17711545 Ry
     Harris-Foulkes estimate   =     -62.17711533 Ry
     estimated scf accuracy    <       0.00000058 Ry

     iteration #  2     ecut=     8.00 Ry     beta=0.70
     Davidson diagonalization with overlap
     ethr =  1.83E-09,  avg # of iterations =  1.0

     total cpu time spent up to now is        0.6 secs

     total energy              =     -62.17711547 Ry
     Harris-Foulkes estimate   =     -62.17711545 Ry
     estimated scf accuracy    <       0.00000005 Ry

     iteration #  3     ecut=     8.00 Ry     beta=0.70
     Davidson diagonalization with overlap
     ethr =  1.41E-10,  avg # of iterations =  1.0

     total cpu time spent up to now is        0.6 secs

     End of self-consistent calculation

          k = 0.0000 0.0000 0.0000 (   437 PWs)   bands (ev):

    -5.2226  -1.0789  -1.0789  -1.0789  -0.9700  -0.9700  -0.9700   3.5747
     3.5747   3.5747   3.6307   3.6307   3.6307   6.5322   6.7962   6.7962

     highest occupied level (ev):     6.7962

!    total energy              =     -62.17711547 Ry
     Harris-Foulkes estimate   =     -62.17711547 Ry
     estimated scf accuracy    <          1.5E-10 Ry

     convergence has been achieved in   3 iterations

     Forces acting on atoms (Ry/au):

     atom    1 type  1   force =    -0.01194510   -0.01194889   -0.01194282
     atom    2 type  1   force =    -0.01194460   -0.01194387   -0.01194441
     atom    3 type  1   force =    -0.01195148   -0.01194575   -0.01195142
     atom    4 type  1   force =    -0.01194400   -0.01194651   -0.01194649
     atom    5 type  1   force =     0.01194582    0.01194782    0.01194476
     atom    6 type  1   force =     0.01194636    0.01194763    0.01195162
     atom    7 type  1   force =     0.01194518    0.01194173    0.01194372
     atom    8 type  1   force =     0.01194782    0.01194785    0.01194504

     Total force =     0.058525     Total SCF correction =     0.000003

     Entering Dynamics:    iteration =     7
                           time      =   0.0068 pico-seconds


ATOMIC_POSITIONS (alat)
Si      -0.123540430  -0.123540582  -0.123540469
Si       0.376459442   0.376459494  -0.123540587
Si       0.376459350  -0.123540509   0.376459411
Si      -0.123540467   0.376459482   0.376459537
Si       0.123540493   0.123540595   0.123540561
Si       0.623540524   0.623540518   0.123540581
Si       0.623540537   0.123540458   0.623540484
Si       0.123540550   0.623540543   0.623540481


     kinetic energy (Ekin) =     0.00132431 Ry
     temperature           =    19.91355450 K 
     Ekin + Etot (const)   =   -62.17579116 Ry

     Linear momentum :   -0.0000000000   -0.0000000000   -0.0000000000

     Writing output data file pwscf.save

     second order wave-functions extrapolation
     NEW-OLD atomic charge density approx. for the potential

     total cpu time spent up to now is        0.6 secs

     per-process dynamical memory:     3.2 Mb

     Self-consistent Calculation

     iteration #  1     ecut=     8.00 Ry     beta=0.70
     Davidson diagonalization with overlap
     ethr =  1.00E-06,  avg # of iterations =  2.0

     Threshold (ethr) on eigenvalues was too large:
     Diagonalizing with lowered threshold

     Davidson diagonalization with overlap
     ethr =  2.38E-09,  avg # of iterations =  1.0

     total cpu time spent up to now is        0.6 secs

     total energy              =     -62.17750071 Ry
     Harris-Foulkes estimate   =     -62.17750055 Ry
     estimated scf accuracy    <       0.00000077 Ry

     iteration #  2     ecut=     8.00 Ry     beta=0.70
     Davidson diagonalization with overlap
     ethr =  2.42E-09,  avg # of iterations =  1.0

     total cpu time spent up to now is        0.6 secs

     total energy              =     -62.17750073 Ry
     Harris-Foulkes estimate   =     -62.17750071 Ry
     estimated scf accuracy    <       0.00000006 Ry

     iteration #  3     ecut=     8.00 Ry     beta=0.70
     Davidson diagonalization with overlap
     ethr =  1.88E-10,  avg # of iterations =  1.0

     total cpu time spent up to now is        0.6 secs

     End of self-consistent calculation

          k = 0.0000 0.0000 0.0000 (   437 PWs)   bands (ev):

    -5.2224  -1.0737  -1.0737  -1.0737  -0.9746  -0.9746  -0.9746   3.5769
     3.5769   3.5769   3.6283   3.6283   3.6283   6.5473   6.7884   6.7884

     highest occupied level (ev):     6.7884

!    total energy              =     -62.17750074 Ry
     Harris-Foulkes estimate   =     -62.17750074 Ry
     estimated scf accuracy    <          1.9E-10 Ry

     convergence has been achieved in   3 iterations

     Forces acting on atoms (Ry/au):

     atom    1 type  1   force =    -0.01088130   -0.01088229   -0.01087804
     atom    2 type  1   force =    -0.01087762   -0.01087842   -0.01087897
     atom    3 type  1   force =    -0.01088252   -0.01087990   -0.01088395
     atom    4 type  1   force =    -0.01088036   -0.01088124   -0.01088086
     atom    5 type  1   force =     0.01088098    0.01088171    0.01087811
     atom    6 type  1   force =     0.01088010    0.01088134    0.01088366
     atom    7 type  1   force =     0.01087887    0.01087761    0.01087981
     atom    8 type  1   force =     0.01088185    0.01088118    0.01088024

     Total force =     0.053303     Total SCF correction =     0.000003

     Entering Dynamics:    iteration =     8
                           time      =   0.0077 pico-seconds


ATOMIC_POSITIONS (alat)
Si      -0.123695270  -0.123695468  -0.123695312
Si       0.376304577   0.376304641  -0.123695453
Si       0.376304437  -0.123695369   0.376304514
Si      -0.123695309   0.376304619   0.376304683
Si       0.123695349   0.123695478   0.123695428
Si       0.623695391   0.623695389   0.123695480
Si       0.623695401   0.123695289   0.623695328
Si       0.123695425   0.623695420   0.623695333


     kinetic energy (Ekin) =     0.00170845 Ry
     temperature           =    25.68972815 K 
     Ekin + Etot (const)   =   -62.17579229 Ry

     Linear momentum :    0.0000000000   -0.0000000000    0.0000000000

     Writing output data file pwscf.save

     second order wave-functions extrapolation
     NEW-OLD atomic charge density approx. for the potential

     total cpu time spent up to now is        0.7 secs

     per-process dynamical memory:     3.2 Mb

     Self-consistent Calculation

     iteration #  1     ecut=     8.00 Ry     beta=0.70
     Davidson diagonalization with overlap
     ethr =  1.00E-06,  avg # of iterations =  2.0

     Threshold (ethr) on eigenvalues was too large:
     Diagonalizing with lowered threshold

     Davidson diagonalization with overlap
     ethr =  3.01E-09,  avg # of iterations =  1.0

     total cpu time spent up to now is        0.7 secs

     total energy              =     -62.17788991 Ry
     Harris-Foulkes estimate   =     -62.17788972 Ry
     estimated scf accuracy    <       0.00000097 Ry

     iteration #  2     ecut=     8.00 Ry     beta=0.70
     Davidson diagonalization with overlap
     ethr =  3.05E-09,  avg # of iterations =  1.0

     total cpu time spent up to now is        0.7 secs

     total energy              =     -62.17788994 Ry
     Harris-Foulkes estimate   =     -62.17788992 Ry
     estimated scf accuracy    <       0.00000007 Ry

     iteration #  3     ecut=     8.00 Ry     beta=0.70
     Davidson diagonalization with overlap
     ethr =  2.34E-10,  avg # of iterations =  1.0

     total cpu time spent up to now is        0.7 secs

     End of self-consistent calculation

          k = 0.0000 0.0000 0.0000 (   437 PWs)   bands (ev):

    -5.2221  -1.0681  -1.0681  -1.0681  -0.9797  -0.9797  -0.9797   3.5794
     3.5794   3.5794   3.6256   3.6256   3.6256   6.5642   6.7798   6.7798

     highest occupied level (ev):     6.7798

!    total energy              =     -62.17788995 Ry
     Harris-Foulkes estimate   =     -62.17788995 Ry
     estimated scf accuracy    <          2.4E-10 Ry

     convergence has been achieved in   3 iterations

     Forces acting on atoms (Ry/au):

     atom    1 type  1   force =    -0.00969594   -0.00969427   -0.00969280
     atom    2 type  1   force =    -0.00969053   -0.00969240   -0.00969303
     atom    3 type  1   force =    -0.00969266   -0.00969301   -0.00969482
     atom    4 type  1   force =    -0.00969537   -0.00969476   -0.00969379
     atom    5 type  1   force =     0.00969471    0.00969428    0.00969099
     atom    6 type  1   force =     0.00969318    0.00969395    0.00969441
     atom    7 type  1   force =     0.00969219    0.00969297    0.00969481
     atom    8 type  1   force =     0.00969443    0.00969324    0.00969424

     Total force =     0.047489     Total SCF correction =     0.000003

     Entering Dynamics:    iteration =     9
                           time      =   0.0087 pico-seconds


ATOMIC_POSITIONS (alat)
Si      -0.123864994  -0.123865234  -0.123865034
Si       0.376134836   0.376134911  -0.123865198
Si       0.376134647  -0.123865108   0.376134736
Si      -0.123865033   0.376134875   0.376134950
Si       0.123865085   0.123865242   0.123865170
Si       0.623865136   0.623865140   0.123865259
Si       0.623865142   0.123865000   0.623865052
Si       0.123865181   0.623865175   0.623865066


     kinetic energy (Ekin) =     0.00209653 Ry
     temperature           =    31.52529317 K 
     Ekin + Etot (const)   =   -62.17579342 Ry

     Linear momentum :   -0.0000000000    0.0000000000   -0.0000000000

     Writing output data file pwscf.save

     second order wave-functions extrapolation
     NEW-OLD atomic charge density approx. for the potential

     total cpu time spent up to now is        0.7 secs

     per-process dynamical memory:     3.2 Mb

     Self-consistent Calculation

     iteration #  1     ecut=     8.00 Ry     beta=0.70
     Davidson diagonalization with overlap
     ethr =  1.00E-06,  avg # of iterations =  2.0

     Threshold (ethr) on eigenvalues was too large:
     Diagonalizing with lowered threshold

     Davidson diagonalization with overlap
     ethr =  3.60E-09,  avg # of iterations =  1.0

     total cpu time spent up to now is        0.7 secs

     total energy              =     -62.17826510 Ry
     Harris-Foulkes estimate   =     -62.17826486 Ry
     estimated scf accuracy    <       0.00000117 Ry

     iteration #  2     ecut=     8.00 Ry     beta=0.70
     Davidson diagonalization with overlap
     ethr =  3.65E-09,  avg # of iterations =  1.0

     total cpu time spent up to now is        0.7 secs

     total energy              =     -62.17826514 Ry
     Harris-Foulkes estimate   =     -62.17826511 Ry
     estimated scf accuracy    <       0.00000009 Ry

     iteration #  3     ecut=     8.00 Ry     beta=0.70
     Davidson diagonalization with overlap
     ethr =  2.81E-10,  avg # of iterations =  1.0

     total cpu time spent up to now is        0.8 secs

     End of self-consistent calculation

          k = 0.0000 0.0000 0.0000 (   437 PWs)   bands (ev):

    -5.2219  -1.0619  -1.0619  -1.0619  -0.9854  -0.9854  -0.9854   3.5822
     3.5822   3.5822   3.6226   3.6226   3.6226   6.5828   6.7703   6.7703

     highest occupied level (ev):     6.7703

!    total energy              =     -62.17826514 Ry
     Harris-Foulkes estimate   =     -62.17826514 Ry
     estimated scf accuracy    <          2.9E-10 Ry

     convergence has been achieved in   3 iterations

     Forces acting on atoms (Ry/au):

     atom    1 type  1   force =    -0.00840430   -0.00840096   -0.00840230
     atom    2 type  1   force =    -0.00839899   -0.00840114   -0.00840187
     atom    3 type  1   force =    -0.00839833   -0.00840083   -0.00840033
     atom    4 type  1   force =    -0.00840434   -0.00840279   -0.00840134
     atom    5 type  1   force =     0.00840267    0.00840157    0.00839909
     atom    6 type  1   force =     0.00840117    0.00840111    0.00840008
     atom    7 type  1   force =     0.00840067    0.00840276    0.00840402
     atom    8 type  1   force =     0.00840146    0.00840028    0.00840266

     Total force =     0.041159     Total SCF correction =     0.000003

     Entering Dynamics:    iteration =    10
                           time      =   0.0097 pico-seconds


ATOMIC_POSITIONS (alat)
Si      -0.124047617  -0.124047896  -0.124047652
Si       0.375952204   0.375952285  -0.124047840
Si       0.375951966  -0.124047742   0.375952064
Si      -0.124047657   0.375952233   0.375952320
Si       0.124047719   0.124047901   0.124047804
Si       0.624047776   0.624047787   0.124047931
Si       0.624047778   0.124047607   0.624047677
Si       0.124047832   0.624047824   0.624047696


     kinetic energy (Ekin) =     0.00247065 Ry
     temperature           =    37.15094834 K 
     Ekin + Etot (const)   =   -62.17579448 Ry

     Linear momentum :   -0.0000000000   -0.0000000000   -0.0000000000

     Writing output data file pwscf.save

     second order wave-functions extrapolation
     NEW-OLD atomic charge density approx. for the potential

     total cpu time spent up to now is        0.8 secs

     per-process dynamical memory:     3.2 Mb

     Self-consistent Calculation

     iteration #  1     ecut=     8.00 Ry     beta=0.70
     Davidson diagonalization with overlap
     ethr =  1.00E-06,  avg # of iterations =  2.0

     Threshold (ethr) on eigenvalues was too large:
     Diagonalizing with lowered threshold

     Davidson diagonalization with overlap
     ethr =  4.16E-09,  avg # of iterations =  1.0

     total cpu time spent up to now is        0.8 secs

     total energy              =     -62.17860917 Ry
     Harris-Foulkes estimate   =     -62.17860889 Ry
     estimated scf accuracy    <       0.00000135 Ry

     iteration #  2     ecut=     8.00 Ry     beta=0.70
     Davidson diagonalization with overlap
     ethr =  4.21E-09,  avg # of iterations =  1.0

     total cpu time spent up to now is        0.8 secs

     total energy              =     -62.17860921 Ry
     Harris-Foulkes estimate   =     -62.17860918 Ry
     estimated scf accuracy    <       0.00000010 Ry

     iteration #  3     ecut=     8.00 Ry     beta=0.70
     Davidson diagonalization with overlap
     ethr =  3.25E-10,  avg # of iterations =  1.0

     total cpu time spent up to now is        0.8 secs

     End of self-consistent calculation

          k = 0.0000 0.0000 0.0000 (   437 PWs)   bands (ev):

    -5.2217  -1.0554  -1.0554  -1.0554  -0.9914  -0.9914  -0.9914   3.5853
     3.5853   3.5853   3.6193   3.6193   3.6193   6.6028   6.7602   6.7602

     highest occupied level (ev):     6.7602

!    total energy              =     -62.17860921 Ry
     Harris-Foulkes estimate   =     -62.17860921 Ry
     estimated scf accuracy    <          3.3E-10 Ry

     convergence has been achieved in   3 iterations

     Forces acting on atoms (Ry/au):

     atom    1 type  1   force =    -0.00702398   -0.00702026   -0.00702361
     atom    2 type  1   force =    -0.00702033   -0.00702206   -0.00702279
     atom    3 type  1   force =    -0.00701750   -0.00702103   -0.00701875
     atom    4 type  1   force =    -0.00702468   -0.00702286   -0.00702123
     atom    5 type  1   force =     0.00702256    0.00702133    0.00701998
     atom    6 type  1   force =     0.00702158    0.00702073    0.00701878
     atom    7 type  1   force =     0.00702167    0.00702411    0.00702474
     atom    8 type  1   force =     0.00702070    0.00702004    0.00702288

     Total force =     0.034399     Total SCF correction =     0.000003

     Entering Dynamics:    iteration =    11
                           time      =   0.0106 pico-seconds


ATOMIC_POSITIONS (alat)
Si      -0.124241022  -0.124241333  -0.124241052
Si       0.375758796   0.375758881  -0.124241261
Si       0.375758513  -0.124241153   0.375758618
Si      -0.124241064   0.375758811   0.375758914
Si       0.124241132   0.124241338   0.124241213
Si       0.624241195   0.624241209   0.124241377
Si       0.624241191   0.124240997   0.624241084
Si       0.124241259   0.624241249   0.624241106


     kinetic energy (Ekin) =     0.00281377 Ry
     temperature           =    42.31027908 K 
     Ekin + Etot (const)   =   -62.17579545 Ry

     Linear momentum :    0.0000000000   -0.0000000000   -0.0000000000

     Writing output data file pwscf.save

     second order wave-functions extrapolation
     NEW-OLD atomic charge density approx. for the potential

     total cpu time spent up to now is        0.8 secs

     per-process dynamical memory:     3.2 Mb

     Self-consistent Calculation

     iteration #  1     ecut=     8.00 Ry     beta=0.70
     Davidson diagonalization with overlap
     ethr =  1.00E-06,  avg # of iterations =  2.0

     Threshold (ethr) on eigenvalues was too large:
     Diagonalizing with lowered threshold

     Davidson diagonalization with overlap
     ethr =  4.65E-09,  avg # of iterations =  1.0

     total cpu time spent up to now is        0.9 secs

     total energy              =     -62.17890668 Ry
     Harris-Foulkes estimate   =     -62.17890637 Ry
     estimated scf accuracy    <       0.00000150 Ry

     iteration #  2     ecut=     8.00 Ry     beta=0.70
     Davidson diagonalization with overlap
     ethr =  4.70E-09,  avg # of iterations =  1.0

     total cpu time spent up to now is        0.9 secs

     total energy              =     -62.17890673 Ry
     Harris-Foulkes estimate   =     -62.17890669 Ry
     estimated scf accuracy    <       0.00000012 Ry

     iteration #  3     ecut=     8.00 Ry     beta=0.70
     Davidson diagonalization with overlap
     ethr =  3.64E-10,  avg # of iterations =  1.0

     total cpu time spent up to now is        0.9 secs

     End of self-consistent calculation

          k = 0.0000 0.0000 0.0000 (   437 PWs)   bands (ev):

    -5.2215  -1.0486  -1.0486  -1.0486  -0.9978  -0.9978  -0.9978   3.5886
     3.5886   3.5886   3.6159   3.6159   3.6159   6.6240   6.7494   6.7494

     highest occupied level (ev):     6.7494

!    total energy              =     -62.17890673 Ry
     Harris-Foulkes estimate   =     -62.17890673 Ry
     estimated scf accuracy    <          3.6E-10 Ry

     convergence has been achieved in   3 iterations

     Forces acting on atoms (Ry/au):

     atom    1 type  1   force =    -0.00557329   -0.00557029   -0.00557436
     atom    2 type  1   force =    -0.00557206   -0.00557298   -0.00557359
     atom    3 type  1   force =    -0.00556811   -0.00557162   -0.00556843
     atom    4 type  1   force =    -0.00557453   -0.00557293   -0.00557155
     atom    5 type  1   force =     0.00557251    0.00557157    0.00557140
     atom    6 type  1   force =     0.00557223    0.00557092    0.00556866
     atom    7 type  1   force =     0.00557285    0.00557477    0.00557494
     atom    8 type  1   force =     0.00557040    0.00557055    0.00557293

     Total force =     0.027297     Total SCF correction =     0.000003

     Entering Dynamics:    iteration =    12
                           time      =   0.0116 pico-seconds


ATOMIC_POSITIONS (alat)
Si      -0.124442982  -0.124443320  -0.124443007
Si       0.375556835   0.375556923  -0.124443237
Si       0.375556513  -0.124443116   0.375556626
Si      -0.124443027   0.375556836   0.375556955
Si       0.124443099   0.124443327   0.124443174
Si       0.624443166   0.624443183   0.124443371
Si       0.624443159   0.124442943   0.624443048
Si       0.124443237   0.624443224   0.624443071


     kinetic energy (Ekin) =     0.00311047 Ry
     temperature           =    46.77179342 K 
     Ekin + Etot (const)   =   -62.17579626 Ry

     Linear momentum :    0.0000000000    0.0000000000   -0.0000000000

     Writing output data file pwscf.save

     second order wave-functions extrapolation
     NEW-OLD atomic charge density approx. for the potential

     total cpu time spent up to now is        0.9 secs

     per-process dynamical memory:     3.2 Mb

     Self-consistent Calculation

     iteration #  1     ecut=     8.00 Ry     beta=0.70
     Davidson diagonalization with overlap
     ethr =  1.00E-06,  avg # of iterations =  2.0

     Threshold (ethr) on eigenvalues was too large:
     Diagonalizing with lowered threshold

     Davidson diagonalization with overlap
     ethr =  5.07E-09,  avg # of iterations =  1.0

     total cpu time spent up to now is        0.9 secs

     total energy              =     -62.17914456 Ry
     Harris-Foulkes estimate   =     -62.17914421 Ry
     estimated scf accuracy    <       0.00000164 Ry

     iteration #  2     ecut=     8.00 Ry     beta=0.70
     Davidson diagonalization with overlap
     ethr =  5.11E-09,  avg # of iterations =  1.0

     total cpu time spent up to now is        0.9 secs

     total energy              =     -62.17914461 Ry
     Harris-Foulkes estimate   =     -62.17914457 Ry
     estimated scf accuracy    <       0.00000013 Ry

     iteration #  3     ecut=     8.00 Ry     beta=0.70
     Davidson diagonalization with overlap
     ethr =  3.96E-10,  avg # of iterations =  1.0

     total cpu time spent up to now is        0.9 secs

     End of self-consistent calculation

          k = 0.0000 0.0000 0.0000 (   437 PWs)   bands (ev):

    -5.2214  -1.0416  -1.0416  -1.0416  -1.0045  -1.0045  -1.0045   3.5921
     3.5921   3.5921   3.6123   3.6123   3.6123   6.6461   6.7382   6.7382

     highest occupied level (ev):     6.7382

!    total energy              =     -62.17914461 Ry
     Harris-Foulkes estimate   =     -62.17914461 Ry
     estimated scf accuracy    <          3.7E-10 Ry

     convergence has been achieved in   3 iterations

     Forces acting on atoms (Ry/au):

     atom    1 type  1   force =    -0.00407108   -0.00406944   -0.00407300
     atom    2 type  1   force =    -0.00407220   -0.00407222   -0.00407266
     atom    3 type  1   force =    -0.00406822   -0.00407093   -0.00406779
     atom    4 type  1   force =    -0.00407269   -0.00407150   -0.00407070
     atom    5 type  1   force =     0.00407115    0.00407070    0.00407142
     atom    6 type  1   force =     0.00407143    0.00407006    0.00406805
     atom    7 type  1   force =     0.00407241    0.00407324    0.00407324
     atom    8 type  1   force =     0.00406920    0.00407008    0.00407144

     Total force =     0.019944     Total SCF correction =     0.000003

     Entering Dynamics:    iteration =    13
                           time      =   0.0126 pico-seconds


ATOMIC_POSITIONS (alat)
Si      -0.124651191  -0.124651553  -0.124651215
Si       0.375348624   0.375348714  -0.124651464
Si       0.375348269  -0.124651327   0.375348389
Si      -0.124651242   0.375348610   0.375348749
Si       0.124651314   0.124651564   0.124651384
Si       0.624651386   0.624651404   0.124651609
Si       0.624651377   0.124651142   0.624651265
Si       0.124651461   0.624651446   0.624651284


     kinetic energy (Ekin) =     0.00334771 Ry
     temperature           =    50.33916351 K 
     Ekin + Etot (const)   =   -62.17579690 Ry

     Linear momentum :    0.0000000000    0.0000000000   -0.0000000000

     Writing output data file pwscf.save

     second order wave-functions extrapolation
     NEW-OLD atomic charge density approx. for the potential

     total cpu time spent up to now is        1.0 secs

     per-process dynamical memory:     3.2 Mb

     Self-consistent Calculation

     iteration #  1     ecut=     8.00 Ry     beta=0.70
     Davidson diagonalization with overlap
     ethr =  1.00E-06,  avg # of iterations =  2.0

     Threshold (ethr) on eigenvalues was too large:
     Diagonalizing with lowered threshold

     Davidson diagonalization with overlap
     ethr =  5.37E-09,  avg # of iterations =  1.0

     total cpu time spent up to now is        1.0 secs

     total energy              =     -62.17931260 Ry
     Harris-Foulkes estimate   =     -62.17931223 Ry
     estimated scf accuracy    <       0.00000173 Ry

     iteration #  2     ecut=     8.00 Ry     beta=0.70
     Davidson diagonalization with overlap
     ethr =  5.41E-09,  avg # of iterations =  1.0

     total cpu time spent up to now is        1.0 secs

     total energy              =     -62.17931265 Ry
     Harris-Foulkes estimate   =     -62.17931261 Ry
     estimated scf accuracy    <       0.00000013 Ry

     iteration #  3     ecut=     8.00 Ry     beta=0.70
     Davidson diagonalization with overlap
     ethr =  4.20E-10,  avg # of iterations =  1.0

     total cpu time spent up to now is        1.0 secs

     End of self-consistent calculation

          k = 0.0000 0.0000 0.0000 (   437 PWs)   bands (ev):

    -5.2213  -1.0345  -1.0345  -1.0345  -1.0114  -1.0114  -1.0114   3.5958
     3.5958   3.5958   3.6085   3.6085   3.6085   6.6690   6.7267   6.7267

     highest occupied level (ev):     6.7267

!    total energy              =     -62.17931266 Ry
     Harris-Foulkes estimate   =     -62.17931266 Ry
     estimated scf accuracy    <          3.9E-10 Ry

     convergence has been achieved in   3 iterations

     Forces acting on atoms (Ry/au):

     atom    1 type  1   force =    -0.00253629   -0.00253611   -0.00253827
     atom    2 type  1   force =    -0.00253889   -0.00253827   -0.00253848
     atom    3 type  1   force =    -0.00253581   -0.00253729   -0.00253507
     atom    4 type  1   force =    -0.00253797   -0.00253719   -0.00253711
     atom    5 type  1   force =     0.00253709    0.00253715    0.00253826
     atom    6 type  1   force =     0.00253750    0.00253648    0.00253518
     atom    7 type  1   force =     0.00253867    0.00253829    0.00253839
     atom    8 type  1   force =     0.00253570    0.00253696    0.00253709

     Total force =     0.012430     Total SCF correction =     0.000002

     Entering Dynamics:    iteration =    14
                           time      =   0.0135 pico-seconds


ATOMIC_POSITIONS (alat)
Si      -0.124863292  -0.124863680  -0.124863318
Si       0.375136515   0.375136609  -0.124863588
Si       0.375136133  -0.124863433   0.375136261
Si      -0.124863352   0.375136491   0.375136647
Si       0.124863424   0.124863696   0.124863491
Si       0.624863502   0.624863518   0.124863738
Si       0.624863492   0.124863237   0.624863377
Si       0.124863577   0.624863563   0.624863392


     kinetic energy (Ekin) =     0.00351532 Ry
     temperature           =    52.85954752 K 
     Ekin + Etot (const)   =   -62.17579733 Ry

     Linear momentum :    0.0000000000    0.0000000000   -0.0000000000

     Writing output data file pwscf.save

     second order wave-functions extrapolation
     NEW-OLD atomic charge density approx. for the potential

     total cpu time spent up to now is        1.0 secs

     per-process dynamical memory:     3.2 Mb

     Self-consistent Calculation

     iteration #  1     ecut=     8.00 Ry     beta=0.70
     Davidson diagonalization with overlap
     ethr =  1.00E-06,  avg # of iterations =  2.0

     Threshold (ethr) on eigenvalues was too large:
     Diagonalizing with lowered threshold

     Davidson diagonalization with overlap
     ethr =  5.55E-09,  avg # of iterations =  1.0

     total cpu time spent up to now is        1.0 secs

     total energy              =     -62.17940391 Ry
     Harris-Foulkes estimate   =     -62.17940352 Ry
     estimated scf accuracy    <       0.00000179 Ry

     iteration #  2     ecut=     8.00 Ry     beta=0.70
     Davidson diagonalization with overlap
     ethr =  5.59E-09,  avg # of iterations =  1.0

     total cpu time spent up to now is        1.0 secs

     total energy              =     -62.17940397 Ry
     Harris-Foulkes estimate   =     -62.17940392 Ry
     estimated scf accuracy    <       0.00000014 Ry

     iteration #  3     ecut=     8.00 Ry     beta=0.70
     Davidson diagonalization with overlap
     ethr =  4.36E-10,  avg # of iterations =  1.0

     total cpu time spent up to now is        1.1 secs

     End of self-consistent calculation

          k = 0.0000 0.0000 0.0000 (   437 PWs)   bands (ev):

    -5.2212  -1.0274  -1.0274  -1.0274  -1.0184  -1.0184  -1.0184   3.5996
     3.5996   3.5996   3.6046   3.6046   3.6046   6.6924   6.7150   6.7150

     highest occupied level (ev):     6.7150

!    total energy              =     -62.17940397 Ry
     Harris-Foulkes estimate   =     -62.17940397 Ry
     estimated scf accuracy    <          4.0E-10 Ry

     convergence has been achieved in   3 iterations

     Forces acting on atoms (Ry/au):

     atom    1 type  1   force =    -0.00098732   -0.00098825   -0.00098867
     atom    2 type  1   force =    -0.00099023   -0.00098947   -0.00098947
     atom    3 type  1   force =    -0.00098864   -0.00098889   -0.00098806
     atom    4 type  1   force =    -0.00098879   -0.00098826   -0.00098876
     atom    5 type  1   force =     0.00098852    0.00098902    0.00098993
     atom    6 type  1   force =     0.00098874    0.00098829    0.00098790
     atom    7 type  1   force =     0.00098986    0.00098847    0.00098892
     atom    8 type  1   force =     0.00098787    0.00098909    0.00098821

     Total force =     0.004844     Total SCF correction =     0.000002

     Entering Dynamics:    iteration =    15
                           time      =   0.0145 pico-seconds


ATOMIC_POSITIONS (alat)
Si      -0.125076909  -0.125077323  -0.125076940
Si       0.374922887   0.374922985  -0.125077231
Si       0.374922479  -0.125077057   0.374922617
Si      -0.125076980   0.374922854   0.374923029
Si       0.125077051   0.125077345   0.125077116
Si       0.625077135   0.625077150   0.125077383
Si       0.625077127   0.125076849   0.625077008
Si       0.125077210   0.625077197   0.625077017


     kinetic energy (Ekin) =     0.00360643 Ry
     temperature           =    54.22953353 K 
     Ekin + Etot (const)   =   -62.17579754 Ry

     Linear momentum :    0.0000000000   -0.0000000000   -0.0000000000

     Writing output data file pwscf.save

     second order wave-functions extrapolation
     NEW-OLD atomic charge density approx. for the potential

     total cpu time spent up to now is        1.1 secs

     per-process dynamical memory:     3.2 Mb

     Self-consistent Calculation

     iteration #  1     ecut=     8.00 Ry     beta=0.70
     Davidson diagonalization with overlap
     ethr =  1.00E-06,  avg # of iterations =  2.0

     Threshold (ethr) on eigenvalues was too large:
     Diagonalizing with lowered threshold

     Davidson diagonalization with overlap
     ethr =  5.63E-09,  avg # of iterations =  1.0

     total cpu time spent up to now is        1.1 secs

     total energy              =     -62.17941514 Ry
     Harris-Foulkes estimate   =     -62.17941474 Ry
     estimated scf accuracy    <       0.00000181 Ry

     iteration #  2     ecut=     8.00 Ry     beta=0.70
     Davidson diagonalization with overlap
     ethr =  5.66E-09,  avg # of iterations =  1.0

     total cpu time spent up to now is        1.1 secs

     total energy              =     -62.17941520 Ry
     Harris-Foulkes estimate   =     -62.17941515 Ry
     estimated scf accuracy    <       0.00000014 Ry

     iteration #  3     ecut=     8.00 Ry     beta=0.70
     Davidson diagonalization with overlap
     ethr =  4.41E-10,  avg # of iterations =  1.0

     total cpu time spent up to now is        1.1 secs

     End of self-consistent calculation

          k = 0.0000 0.0000 0.0000 (   437 PWs)   bands (ev):

    -5.2212  -1.0254  -1.0254  -1.0254  -1.0203  -1.0203  -1.0203   3.6007
     3.6007   3.6007   3.6035   3.6035   3.6035   6.7032   6.7032   6.7159

     highest occupied level (ev):     6.7159

!    total energy              =     -62.17941521 Ry
     Harris-Foulkes estimate   =     -62.17941521 Ry
     estimated scf accuracy    <          4.1E-10 Ry

     convergence has been achieved in   3 iterations

     Forces acting on atoms (Ry/au):

     atom    1 type  1   force =     0.00055783    0.00055650    0.00055760
     atom    2 type  1   force =     0.00055610    0.00055625    0.00055645
     atom    3 type  1   force =     0.00055588    0.00055658    0.00055601
     atom    4 type  1   force =     0.00055681    0.00055740    0.00055656
     atom    5 type  1   force =    -0.00055687   -0.00055603   -0.00055579
     atom    6 type  1   force =    -0.00055698   -0.00055677   -0.00055641
     atom    7 type  1   force =    -0.00055605   -0.00055800   -0.00055714
     atom    8 type  1   force =    -0.00055672   -0.00055593   -0.00055729

     Total force =     0.002727     Total SCF correction =     0.000001

     Entering Dynamics:    iteration =    16
                           time      =   0.0155 pico-seconds


ATOMIC_POSITIONS (alat)
Si      -0.125289670  -0.125290112  -0.125289705
Si       0.374710112   0.374710215  -0.125290019
Si       0.374709679  -0.125289827   0.374709826
Si      -0.125289753   0.374710073   0.374710264
Si       0.125289824   0.125290142   0.125289889
Si       0.625289913   0.625289926   0.125290175
Si       0.625289908   0.125289604   0.625289784
Si       0.125289988   0.625289978   0.625289786


     kinetic energy (Ekin) =     0.00361768 Ry
     temperature           =    54.39861677 K 
     Ekin + Etot (const)   =   -62.17579753 Ry

     Linear momentum :    0.0000000000   -0.0000000000   -0.0000000000

     Writing output data file pwscf.save

     second order wave-functions extrapolation
     NEW-OLD atomic charge density approx. for the potential

     total cpu time spent up to now is        1.1 secs

     per-process dynamical memory:     3.2 Mb

     Self-consistent Calculation

     iteration #  1     ecut=     8.00 Ry     beta=0.70
     Davidson diagonalization with overlap
     ethr =  1.00E-06,  avg # of iterations =  2.0

     Threshold (ethr) on eigenvalues was too large:
     Diagonalizing with lowered threshold

     Davidson diagonalization with overlap
     ethr =  5.55E-09,  avg # of iterations =  1.0

     total cpu time spent up to now is        1.2 secs

     total energy              =     -62.17934652 Ry
     Harris-Foulkes estimate   =     -62.17934612 Ry
     estimated scf accuracy    <       0.00000179 Ry

     iteration #  2     ecut=     8.00 Ry     beta=0.70
     Davidson diagonalization with overlap
     ethr =  5.59E-09,  avg # of iterations =  1.0

     total cpu time spent up to now is        1.2 secs

     total energy              =     -62.17934658 Ry
     Harris-Foulkes estimate   =     -62.17934653 Ry
     estimated scf accuracy    <       0.00000014 Ry

     iteration #  3     ecut=     8.00 Ry     beta=0.70
     Davidson diagonalization with overlap
     ethr =  4.37E-10,  avg # of iterations =  1.0

     total cpu time spent up to now is        1.2 secs

     End of self-consistent calculation

          k = 0.0000 0.0000 0.0000 (   437 PWs)   bands (ev):

    -5.2212  -1.0324  -1.0324  -1.0324  -1.0135  -1.0135  -1.0135   3.5967
     3.5968   3.5968   3.6075   3.6075   3.6075   6.6915   6.6915   6.7394

     highest occupied level (ev):     6.7394

!    total energy              =     -62.17934658 Ry
     Harris-Foulkes estimate   =     -62.17934658 Ry
     estimated scf accuracy    <          3.9E-10 Ry

     convergence has been achieved in   3 iterations

     Forces acting on atoms (Ry/au):

     atom    1 type  1   force =     0.00208238    0.00208114    0.00208322
     atom    2 type  1   force =     0.00208229    0.00208172    0.00208192
     atom    3 type  1   force =     0.00208061    0.00208187    0.00208017
     atom    4 type  1   force =     0.00208185    0.00208255    0.00208182
     atom    5 type  1   force =    -0.00208197   -0.00208075   -0.00208162
     atom    6 type  1   force =    -0.00208233   -0.00208174   -0.00208070
     atom    7 type  1   force =    -0.00208171   -0.00208384   -0.00208259
     atom    8 type  1   force =    -0.00208112   -0.00208094   -0.00208222

     Total force =     0.010199     Total SCF correction =     0.000001

     Entering Dynamics:    iteration =    17
                           time      =   0.0164 pico-seconds


ATOMIC_POSITIONS (alat)
Si      -0.125499235  -0.125499706  -0.125499273
Si       0.374500534   0.374500640  -0.125499612
Si       0.374500072  -0.125499401   0.374500228
Si      -0.125499331   0.374500488   0.374500695
Si       0.125499400   0.125499744   0.125499467
Si       0.625499495   0.625499508   0.125499773
Si       0.625499494   0.125499161   0.625499362
Si       0.125499571   0.625499566   0.625499359


     kinetic energy (Ekin) =     0.00354929 Ry
     temperature           =    53.37020624 K 
     Ekin + Etot (const)   =   -62.17579730 Ry

     Linear momentum :   -0.0000000000    0.0000000000   -0.0000000000

     Writing output data file pwscf.save

     second order wave-functions extrapolation
     NEW-OLD atomic charge density approx. for the potential

     total cpu time spent up to now is        1.2 secs

     per-process dynamical memory:     3.2 Mb

     Self-consistent Calculation

     iteration #  1     ecut=     8.00 Ry     beta=0.70
     Davidson diagonalization with overlap
     ethr =  1.00E-06,  avg # of iterations =  2.0

     Threshold (ethr) on eigenvalues was too large:
     Diagonalizing with lowered threshold

     Davidson diagonalization with overlap
     ethr =  5.36E-09,  avg # of iterations =  1.0

     total cpu time spent up to now is        1.2 secs

     total energy              =     -62.17920177 Ry
     Harris-Foulkes estimate   =     -62.17920138 Ry
     estimated scf accuracy    <       0.00000173 Ry

     iteration #  2     ecut=     8.00 Ry     beta=0.70
     Davidson diagonalization with overlap
     ethr =  5.40E-09,  avg # of iterations =  1.0

     total cpu time spent up to now is        1.2 secs

     total energy              =     -62.17920183 Ry
     Harris-Foulkes estimate   =     -62.17920178 Ry
     estimated scf accuracy    <       0.00000014 Ry

     iteration #  3     ecut=     8.00 Ry     beta=0.70
     Davidson diagonalization with overlap
     ethr =  4.24E-10,  avg # of iterations =  1.0

     total cpu time spent up to now is        1.2 secs

     End of self-consistent calculation

          k = 0.0000 0.0000 0.0000 (   437 PWs)   bands (ev):

    -5.2213  -1.0392  -1.0392  -1.0392  -1.0068  -1.0068  -1.0068   3.5928
     3.5928   3.5928   3.6115   3.6115   3.6115   6.6800   6.6800   6.7626

     highest occupied level (ev):     6.7626

!    total energy              =     -62.17920183 Ry
     Harris-Foulkes estimate   =     -62.17920183 Ry
     estimated scf accuracy    <          3.7E-10 Ry

     convergence has been achieved in   3 iterations

     Forces acting on atoms (Ry/au):

     atom    1 type  1   force =     0.00357029    0.00356953    0.00357190
     atom    2 type  1   force =     0.00357193    0.00357057    0.00357067
     atom    3 type  1   force =     0.00356922    0.00357076    0.00356838
     atom    4 type  1   force =     0.00357026    0.00357099    0.00357077
     atom    5 type  1   force =    -0.00357062   -0.00356906   -0.00357107
     atom    6 type  1   force =    -0.00357103   -0.00357039   -0.00356893
     atom    7 type  1   force =    -0.00357076   -0.00357271   -0.00357120
     atom    8 type  1   force =    -0.00356930   -0.00356968   -0.00357051

     Total force =     0.017492     Total SCF correction =     0.000001

     Entering Dynamics:    iteration =    18
                           time      =   0.0174 pico-seconds


ATOMIC_POSITIONS (alat)
Si      -0.125703319  -0.125703822  -0.125703357
Si       0.374296438   0.374296546  -0.125703724
Si       0.374295943  -0.125703494   0.374296108
Si      -0.125703429   0.374296385   0.374296607
Si       0.125703496   0.125703868   0.125703563
Si       0.625703596   0.625703609   0.125703892
Si       0.625703599   0.125703234   0.625703460
Si       0.125703676   0.625703674   0.625703452


     kinetic energy (Ekin) =     0.00340497 Ry
     temperature           =    51.20012757 K 
     Ekin + Etot (const)   =   -62.17579686 Ry

     Linear momentum :   -0.0000000000   -0.0000000000   -0.0000000000

     Writing output data file pwscf.save

     second order wave-functions extrapolation
     NEW-OLD atomic charge density approx. for the potential

     total cpu time spent up to now is        1.3 secs

     per-process dynamical memory:     3.2 Mb

     Self-consistent Calculation

     iteration #  1     ecut=     8.00 Ry     beta=0.70
     Davidson diagonalization with overlap
     ethr =  1.00E-06,  avg # of iterations =  2.0

     Threshold (ethr) on eigenvalues was too large:
     Diagonalizing with lowered threshold

     Davidson diagonalization with overlap
     ethr =  5.05E-09,  avg # of iterations =  1.0

     total cpu time spent up to now is        1.3 secs

     total energy              =     -62.17898787 Ry
     Harris-Foulkes estimate   =     -62.17898749 Ry
     estimated scf accuracy    <       0.00000163 Ry

     iteration #  2     ecut=     8.00 Ry     beta=0.70
     Davidson diagonalization with overlap
     ethr =  5.10E-09,  avg # of iterations =  1.0

     total cpu time spent up to now is        1.3 secs

     total energy              =     -62.17898792 Ry
     Harris-Foulkes estimate   =     -62.17898788 Ry
     estimated scf accuracy    <       0.00000013 Ry

     iteration #  3     ecut=     8.00 Ry     beta=0.70
     Davidson diagonalization with overlap
     ethr =  4.02E-10,  avg # of iterations =  1.0

     total cpu time spent up to now is        1.3 secs

     End of self-consistent calculation

          k = 0.0000 0.0000 0.0000 (   437 PWs)   bands (ev):

    -5.2215  -1.0459  -1.0459  -1.0459  -1.0004  -1.0004  -1.0004   3.5890
     3.5890   3.5890   3.6154   3.6154   3.6154   6.6688   6.6688   6.7851

     highest occupied level (ev):     6.7851

!    total energy              =     -62.17898793 Ry
     Harris-Foulkes estimate   =     -62.17898793 Ry
     estimated scf accuracy    <          3.5E-10 Ry

     convergence has been achieved in   3 iterations

     Forces acting on atoms (Ry/au):

     atom    1 type  1   force =     0.00500648    0.00500639    0.00500840
     atom    2 type  1   force =     0.00500948    0.00500747    0.00500740
     atom    3 type  1   force =     0.00500629    0.00500786    0.00500530
     atom    4 type  1   force =     0.00500685    0.00500749    0.00500801
     atom    5 type  1   force =    -0.00500754   -0.00500569   -0.00500864
     atom    6 type  1   force =    -0.00500775   -0.00500738   -0.00500575
     atom    7 type  1   force =    -0.00500782   -0.00500937   -0.00500776
     atom    8 type  1   force =    -0.00500598   -0.00500678   -0.00500696

     Total force =     0.024531     Total SCF correction =     0.000000

     Entering Dynamics:    iteration =    19
                           time      =   0.0184 pico-seconds


ATOMIC_POSITIONS (alat)
Si      -0.125899719  -0.125900253  -0.125899755
Si       0.374100031   0.374100138  -0.125900150
Si       0.374099499  -0.125899900   0.374099670
Si      -0.125899841   0.374099968   0.374100206
Si       0.125899906   0.125900308   0.125899971
Si       0.625900010   0.625900024   0.125900328
Si       0.625900017   0.125899618   0.625899870
Si       0.125900097   0.625900096   0.625899859


     kinetic energy (Ekin) =     0.00319168 Ry
     temperature           =    47.99289570 K 
     Ekin + Etot (const)   =   -62.17579625 Ry

     Linear momentum :    0.0000000000    0.0000000000    0.0000000000

     Writing output data file pwscf.save

     second order wave-functions extrapolation
     NEW-OLD atomic charge density approx. for the potential

     total cpu time spent up to now is        1.3 secs

     per-process dynamical memory:     3.2 Mb

     Self-consistent Calculation

     iteration #  1     ecut=     8.00 Ry     beta=0.70
     Davidson diagonalization with overlap
     ethr =  1.00E-06,  avg # of iterations =  2.0

     Threshold (ethr) on eigenvalues was too large:
     Diagonalizing with lowered threshold

     Davidson diagonalization with overlap
     ethr =  4.66E-09,  avg # of iterations =  1.0

     total cpu time spent up to now is        1.3 secs

     total energy              =     -62.17871466 Ry
     Harris-Foulkes estimate   =     -62.17871431 Ry
     estimated scf accuracy    <       0.00000151 Ry

     iteration #  2     ecut=     8.00 Ry     beta=0.70
     Davidson diagonalization with overlap
     ethr =  4.71E-09,  avg # of iterations =  1.0

     total cpu time spent up to now is        1.4 secs

     total energy              =     -62.17871471 Ry
     Harris-Foulkes estimate   =     -62.17871467 Ry
     estimated scf accuracy    <       0.00000012 Ry

     iteration #  3     ecut=     8.00 Ry     beta=0.70
     Davidson diagonalization with overlap
     ethr =  3.72E-10,  avg # of iterations =  1.0

     total cpu time spent up to now is        1.4 secs

     End of self-consistent calculation

          k = 0.0000 0.0000 0.0000 (   437 PWs)   bands (ev):

    -5.2216  -1.0523  -1.0523  -1.0523  -0.9944  -0.9944  -0.9944   3.5853
     3.5853   3.5853   3.6193   3.6193   3.6193   6.6581   6.6581   6.8069

     highest occupied level (ev):     6.8069

!    total energy              =     -62.17871471 Ry
     Harris-Foulkes estimate   =     -62.17871471 Ry
     estimated scf accuracy    <          3.2E-10 Ry

     convergence has been achieved in   3 iterations

     Forces acting on atoms (Ry/au):

     atom    1 type  1   force =     0.00637689    0.00637742    0.00637868
     atom    2 type  1   force =     0.00638060    0.00637825    0.00637800
     atom    3 type  1   force =     0.00637744    0.00637891    0.00637653
     atom    4 type  1   force =     0.00637748    0.00637794    0.00637920
     atom    5 type  1   force =    -0.00637847   -0.00637643   -0.00637996
     atom    6 type  1   force =    -0.00637832   -0.00637841   -0.00637681
     atom    7 type  1   force =    -0.00637868   -0.00637976   -0.00637819
     atom    8 type  1   force =    -0.00637693   -0.00637794   -0.00637745

     Total force =     0.031246     Total SCF correction =     0.000000

     Entering Dynamics:    iteration =    20
                           time      =   0.0194 pico-seconds


ATOMIC_POSITIONS (alat)
Si      -0.126086330  -0.126086895  -0.126086361
Si       0.373913418   0.373913520  -0.126086786
Si       0.373912844  -0.126086515   0.373913019
Si      -0.126086465   0.373913341   0.373913597
Si       0.126086525   0.126086962   0.126086587
Si       0.626086633   0.626086648   0.126086976
Si       0.626086644   0.126086210   0.626086491
Si       0.126086729   0.626086729   0.626086478


     kinetic energy (Ekin) =     0.00291923 Ry
     temperature           =    43.89607964 K 
     Ekin + Etot (const)   =   -62.17579549 Ry

     Linear momentum :    0.0000000000    0.0000000000   -0.0000000000

     Writing output data file pwscf.save

     second order wave-functions extrapolation
     NEW-OLD atomic charge density approx. for the potential

     total cpu time spent up to now is        1.4 secs

     per-process dynamical memory:     3.2 Mb

     Self-consistent Calculation

     iteration #  1     ecut=     8.00 Ry     beta=0.70
     Davidson diagonalization with overlap
     ethr =  1.00E-06,  avg # of iterations =  2.0

     Threshold (ethr) on eigenvalues was too large:
     Diagonalizing with lowered threshold

     Davidson diagonalization with overlap
     ethr =  4.20E-09,  avg # of iterations =  1.0

     total cpu time spent up to now is        1.4 secs

     total energy              =     -62.17839437 Ry
     Harris-Foulkes estimate   =     -62.17839405 Ry
     estimated scf accuracy    <       0.00000136 Ry

     iteration #  2     ecut=     8.00 Ry     beta=0.70
     Davidson diagonalization with overlap
     ethr =  4.24E-09,  avg # of iterations =  1.0

     total cpu time spent up to now is        1.4 secs

     total energy              =     -62.17839442 Ry
     Harris-Foulkes estimate   =     -62.17839438 Ry
     estimated scf accuracy    <       0.00000011 Ry

     iteration #  3     ecut=     8.00 Ry     beta=0.70
     Davidson diagonalization with overlap
     ethr =  3.35E-10,  avg # of iterations =  1.0

     total cpu time spent up to now is        1.4 secs

     End of self-consistent calculation

          k = 0.0000 0.0000 0.0000 (   437 PWs)   bands (ev):

    -5.2218  -1.0584  -1.0584  -1.0584  -0.9887  -0.9887  -0.9887   3.5818
     3.5818   3.5818   3.6230   3.6230   3.6230   6.6479   6.6479   6.8276

     highest occupied level (ev):     6.8276

!    total energy              =     -62.17839442 Ry
     Harris-Foulkes estimate   =     -62.17839442 Ry
     estimated scf accuracy    <          2.9E-10 Ry

     convergence has been achieved in   3 iterations

     Forces acting on atoms (Ry/au):

     atom    1 type  1   force =     0.00766851    0.00766948    0.00766988
     atom    2 type  1   force =     0.00767227    0.00766989    0.00766951
     atom    3 type  1   force =     0.00766949    0.00767077    0.00766881
     atom    4 type  1   force =     0.00766913    0.00766938    0.00767120
     atom    5 type  1   force =    -0.00767032   -0.00766820   -0.00767191
     atom    6 type  1   force =    -0.00766976   -0.00767033   -0.00766891
     atom    7 type  1   force =    -0.00767034   -0.00767100   -0.00766958
     atom    8 type  1   force =    -0.00766898   -0.00766999   -0.00766900

     Total force =     0.037574     Total SCF correction =     0.000000

     Entering Dynamics:    iteration =    21
                           time      =   0.0203 pico-seconds


ATOMIC_POSITIONS (alat)
Si      -0.126261171  -0.126261765  -0.126261195
Si       0.373738582   0.373738676  -0.126261650
Si       0.373737962  -0.126261356   0.373738140
Si      -0.126261316   0.373738486   0.373738762
Si       0.126261371   0.126261844   0.126261426
Si       0.626261484   0.626261499   0.126261853
Si       0.626261498   0.126261026   0.626261339
Si       0.126261591   0.626261589   0.626261325


     kinetic energy (Ekin) =     0.00259981 Ry
     temperature           =    39.09303352 K 
     Ekin + Etot (const)   =   -62.17579461 Ry

     Linear momentum :   -0.0000000000    0.0000000000   -0.0000000000

     Writing output data file pwscf.save

     second order wave-functions extrapolation
     NEW-OLD atomic charge density approx. for the potential

     total cpu time spent up to now is        1.5 secs

     per-process dynamical memory:     3.2 Mb

     Self-consistent Calculation

     iteration #  1     ecut=     8.00 Ry     beta=0.70
     Davidson diagonalization with overlap
     ethr =  1.00E-06,  avg # of iterations =  2.0

     Threshold (ethr) on eigenvalues was too large:
     Diagonalizing with lowered threshold

     Davidson diagonalization with overlap
     ethr =  3.67E-09,  avg # of iterations =  1.0

     total cpu time spent up to now is        1.5 secs

     total energy              =     -62.17804105 Ry
     Harris-Foulkes estimate   =     -62.17804077 Ry
     estimated scf accuracy    <       0.00000119 Ry

     iteration #  2     ecut=     8.00 Ry     beta=0.70
     Davidson diagonalization with overlap
     ethr =  3.71E-09,  avg # of iterations =  1.0

     total cpu time spent up to now is        1.5 secs

     total energy              =     -62.17804109 Ry
     Harris-Foulkes estimate   =     -62.17804106 Ry
     estimated scf accuracy    <       0.00000009 Ry

     iteration #  3     ecut=     8.00 Ry     beta=0.70
     Davidson diagonalization with overlap
[...]
Si       0.626735082   0.626730098   0.126761742
Si       0.626736065   0.126691015   0.626738721
Si       0.126746098   0.626740157   0.626732938


     kinetic energy (Ekin) =     0.00071881 Ry
     temperature           =    10.80871950 K 
     Ekin + Etot (const)   =   -62.17579034 Ry

     Linear momentum :   -0.0000000000   -0.0000000000   -0.0000000000

     Writing output data file pwscf.save

     second order wave-functions extrapolation
     NEW-OLD atomic charge density approx. for the potential

     total cpu time spent up to now is        5.8 secs

     per-process dynamical memory:     3.5 Mb

     Self-consistent Calculation

     iteration #  1     ecut=     8.00 Ry     beta=0.70
     Davidson diagonalization with overlap
     ethr =  1.00E-06,  avg # of iterations =  2.0

     Threshold (ethr) on eigenvalues was too large:
     Diagonalizing with lowered threshold

     Davidson diagonalization with overlap
     ethr =  1.29E-09,  avg # of iterations =  1.0

     total cpu time spent up to now is        5.8 secs

     total energy              =     -62.17682755 Ry
     Harris-Foulkes estimate   =     -62.17682745 Ry
     estimated scf accuracy    <       0.00000042 Ry

     iteration #  2     ecut=     8.00 Ry     beta=0.70
     Davidson diagonalization with overlap
     ethr =  1.32E-09,  avg # of iterations =  1.0

     total cpu time spent up to now is        5.8 secs

     total energy              =     -62.17682757 Ry
     Harris-Foulkes estimate   =     -62.17682755 Ry
     estimated scf accuracy    <       0.00000003 Ry

     iteration #  3     ecut=     8.00 Ry     beta=0.70
     Davidson diagonalization with overlap
     ethr =  1.05E-10,  avg # of iterations =  1.0

     total cpu time spent up to now is        5.8 secs

     End of self-consistent calculation

          k = 0.0000 0.0000 0.0000 (   437 PWs)   bands (ev):

    -5.2228  -1.0794  -1.0794  -1.0794  -0.9698  -0.9698  -0.9698   3.5694
     3.5694   3.5694   3.6363   3.6363   3.6363   6.6126   6.6126   6.8996

     highest occupied level (ev):     6.8996

!    total energy              =     -62.17682757 Ry
     Harris-Foulkes estimate   =     -62.17682757 Ry
     estimated scf accuracy    <          1.2E-10 Ry

     convergence has been achieved in   3 iterations

     Forces acting on atoms (Ry/au):

     atom    1 type  1   force =     0.01209804    0.01204036    0.01212221
     atom    2 type  1   force =     0.01216354    0.01209821    0.01203467
     atom    3 type  1   force =     0.01199380    0.01212844    0.01200166
     atom    4 type  1   force =     0.01206313    0.01205107    0.01215979
     atom    5 type  1   force =    -0.01210788   -0.01196358   -0.01214833
     atom    6 type  1   force =    -0.01207157   -0.01209301   -0.01201212
     atom    7 type  1   force =    -0.01208619   -0.01218835   -0.01207870
     atom    8 type  1   force =    -0.01205288   -0.01207313   -0.01207918

     Total force =     0.059178     Total SCF correction =     0.000001

     Entering Dynamics:    iteration =    96
                           time      =   0.0929 pico-seconds


ATOMIC_POSITIONS (alat)
Si      -0.126604044  -0.126633257  -0.126591463
Si       0.373422228   0.373397328  -0.126633360
Si       0.373354487  -0.126590110   0.373356266
Si      -0.126620979   0.373377711   0.373420236
Si       0.126600495   0.126660113   0.126583347
Si       0.626611866   0.626606351   0.126639957
Si       0.626612604   0.126564887   0.626615444
Si       0.126623342   0.626616978   0.626609573


     kinetic energy (Ekin) =     0.00103640 Ry
     temperature           =    15.58426411 K 
     Ekin + Etot (const)   =   -62.17579116 Ry

     Linear momentum :   -0.0000000000    0.0000000000    0.0000000000

     Writing output data file pwscf.save

     second order wave-functions extrapolation
     NEW-OLD atomic charge density approx. for the potential

     total cpu time spent up to now is        5.9 secs

     per-process dynamical memory:     3.5 Mb

     Self-consistent Calculation

     iteration #  1     ecut=     8.00 Ry     beta=0.70
     Davidson diagonalization with overlap
     ethr =  1.00E-06,  avg # of iterations =  2.0

     Threshold (ethr) on eigenvalues was too large:
     Diagonalizing with lowered threshold

     Davidson diagonalization with overlap
     ethr =  1.81E-09,  avg # of iterations =  1.0

     total cpu time spent up to now is        5.9 secs

     total energy              =     -62.17717921 Ry
     Harris-Foulkes estimate   =     -62.17717907 Ry
     estimated scf accuracy    <       0.00000059 Ry

     iteration #  2     ecut=     8.00 Ry     beta=0.70
     Davidson diagonalization with overlap
     ethr =  1.84E-09,  avg # of iterations =  1.0

     total cpu time spent up to now is        5.9 secs

     total energy              =     -62.17717924 Ry
     Harris-Foulkes estimate   =     -62.17717922 Ry
     estimated scf accuracy    <       0.00000005 Ry

     iteration #  3     ecut=     8.00 Ry     beta=0.70
     Davidson diagonalization with overlap
     ethr =  1.46E-10,  avg # of iterations =  1.0

     total cpu time spent up to now is        5.9 secs

     End of self-consistent calculation

          k = 0.0000 0.0000 0.0000 (   437 PWs)   bands (ev):

    -5.2225  -1.0754  -1.0754  -1.0754  -0.9733  -0.9733  -0.9733   3.5717
     3.5717   3.5718   3.6337   3.6337   3.6337   6.6193   6.6193   6.8859

     highest occupied level (ev):     6.8859

!    total energy              =     -62.17717924 Ry
     Harris-Foulkes estimate   =     -62.17717924 Ry
     estimated scf accuracy    <          1.6E-10 Ry

     convergence has been achieved in   3 iterations

     Forces acting on atoms (Ry/au):

     atom    1 type  1   force =     0.01126895    0.01120397    0.01129478
     atom    2 type  1   force =     0.01133841    0.01127128    0.01120343
     atom    3 type  1   force =     0.01116043    0.01130584    0.01116916
     atom    4 type  1   force =     0.01123391    0.01122076    0.01133438
     atom    5 type  1   force =    -0.01128246   -0.01112978   -0.01132535
     atom    6 type  1   force =    -0.01124398   -0.01126367   -0.01117685
     atom    7 type  1   force =    -0.01125468   -0.01136582   -0.01124704
     atom    8 type  1   force =    -0.01122057   -0.01124259   -0.01125250

     Total force =     0.055116     Total SCF correction =     0.000004

     Entering Dynamics:    iteration =    97
                           time      =   0.0939 pico-seconds


ATOMIC_POSITIONS (alat)
Si      -0.126462929  -0.126493712  -0.126449643
Si       0.373565124   0.373538502  -0.126494011
Si       0.373492949  -0.126448172   0.373494895
Si      -0.126480861   0.373517646   0.373563027
Si       0.126459095   0.126522568   0.126440875
Si       0.626471390   0.626465315   0.126501017
Si       0.626471868   0.126421313   0.626474904
Si       0.126483363   0.626476542   0.626468936


     kinetic energy (Ekin) =     0.00138714 Ry
     temperature           =    20.85831886 K 
     Ekin + Etot (const)   =   -62.17579209 Ry

     Linear momentum :   -0.0000000000    0.0000000000    0.0000000000

     Writing output data file pwscf.save

     second order wave-functions extrapolation
     NEW-OLD atomic charge density approx. for the potential

     total cpu time spent up to now is        5.9 secs

     per-process dynamical memory:     3.5 Mb

     Self-consistent Calculation

     iteration #  1     ecut=     8.00 Ry     beta=0.70
     Davidson diagonalization with overlap
     ethr =  1.00E-06,  avg # of iterations =  2.0

     Threshold (ethr) on eigenvalues was too large:
     Diagonalizing with lowered threshold

     Davidson diagonalization with overlap
     ethr =  2.35E-09,  avg # of iterations =  1.0

     total cpu time spent up to now is        5.9 secs

     total energy              =     -62.17754953 Ry
     Harris-Foulkes estimate   =     -62.17754934 Ry
     estimated scf accuracy    <       0.00000077 Ry

     iteration #  2     ecut=     8.00 Ry     beta=0.70
     Davidson diagonalization with overlap
     ethr =  2.39E-09,  avg # of iterations =  1.0

     total cpu time spent up to now is        6.0 secs

     total energy              =     -62.17754955 Ry
     Harris-Foulkes estimate   =     -62.17754953 Ry
     estimated scf accuracy    <       0.00000006 Ry

     iteration #  3     ecut=     8.00 Ry     beta=0.70
     Davidson diagonalization with overlap
     ethr =  1.90E-10,  avg # of iterations =  1.0

     total cpu time spent up to now is        6.0 secs

     End of self-consistent calculation

          k = 0.0000 0.0000 0.0000 (   437 PWs)   bands (ev):

    -5.2223  -1.0709  -1.0709  -1.0709  -0.9774  -0.9774  -0.9774   3.5744
     3.5745   3.5745   3.6308   3.6308   3.6308   6.6269   6.6269   6.8703

     highest occupied level (ev):     6.8703

!    total energy              =     -62.17754956 Ry
     Harris-Foulkes estimate   =     -62.17754956 Ry
     estimated scf accuracy    <          1.9E-10 Ry

     convergence has been achieved in   3 iterations

     Forces acting on atoms (Ry/au):

     atom    1 type  1   force =     0.01031872    0.01024818    0.01034603
     atom    2 type  1   force =     0.01039311    0.01032265    0.01025037
     atom    3 type  1   force =     0.01020491    0.01035958    0.01021437
     atom    4 type  1   force =     0.01028250    0.01026886    0.01038856
     atom    5 type  1   force =    -0.01033513   -0.01017373   -0.01038051
     atom    6 type  1   force =    -0.01029353   -0.01031324   -0.01022107
     atom    7 type  1   force =    -0.01030327   -0.01042137   -0.01029524
     atom    8 type  1   force =    -0.01026731   -0.01029093   -0.01030252

     Total force =     0.050460     Total SCF correction =     0.000002

     Entering Dynamics:    iteration =    98
                           time      =   0.0948 pico-seconds


ATOMIC_POSITIONS (alat)
Si      -0.126305975  -0.126338437  -0.126291941
Si       0.373723972   0.373695519  -0.126338928
Si       0.373647075  -0.126290333   0.373649202
Si      -0.126324960   0.373673343   0.373721764
Si       0.126301832   0.126369407   0.126282469
Si       0.626315115   0.626308448   0.126346387
Si       0.626315317   0.126261742   0.626318561
Si       0.126327625   0.626320310   0.626312486


     kinetic energy (Ekin) =     0.00175647 Ry
     temperature           =    26.41184857 K 
     Ekin + Etot (const)   =   -62.17579309 Ry

     Linear momentum :    0.0000000000    0.0000000000    0.0000000000

     Writing output data file pwscf.save

     second order wave-functions extrapolation
     NEW-OLD atomic charge density approx. for the potential

     total cpu time spent up to now is        6.0 secs

     per-process dynamical memory:     3.5 Mb

     Self-consistent Calculation

     iteration #  1     ecut=     8.00 Ry     beta=0.70
     Davidson diagonalization with overlap
     ethr =  1.00E-06,  avg # of iterations =  2.0

     Threshold (ethr) on eigenvalues was too large:
     Diagonalizing with lowered threshold

     Davidson diagonalization with overlap
     ethr =  2.91E-09,  avg # of iterations =  1.0

     total cpu time spent up to now is        6.0 secs

     total energy              =     -62.17792296 Ry
     Harris-Foulkes estimate   =     -62.17792273 Ry
     estimated scf accuracy    <       0.00000095 Ry

     iteration #  2     ecut=     8.00 Ry     beta=0.70
     Davidson diagonalization with overlap
     ethr =  2.96E-09,  avg # of iterations =  1.0

     total cpu time spent up to now is        6.0 secs

     total energy              =     -62.17792299 Ry
     Harris-Foulkes estimate   =     -62.17792297 Ry
     estimated scf accuracy    <       0.00000008 Ry

     iteration #  3     ecut=     8.00 Ry     beta=0.70
     Davidson diagonalization with overlap
     ethr =  2.35E-10,  avg # of iterations =  1.0

     total cpu time spent up to now is        6.0 secs

     End of self-consistent calculation

          k = 0.0000 0.0000 0.0000 (   437 PWs)   bands (ev):

    -5.2221  -1.0658  -1.0658  -1.0658  -0.9820  -0.9819  -0.9819   3.5774
     3.5774   3.5774   3.6276   3.6276   3.6276   6.6354   6.6354   6.8529

     highest occupied level (ev):     6.8529

!    total energy              =     -62.17792299 Ry
     Harris-Foulkes estimate   =     -62.17792299 Ry
     estimated scf accuracy    <          2.1E-10 Ry

     convergence has been achieved in   3 iterations

     Forces acting on atoms (Ry/au):

     atom    1 type  1   force =     0.00925468    0.00918062    0.00928370
     atom    2 type  1   force =     0.00933538    0.00926013    0.00918314
     atom    3 type  1   force =     0.00913547    0.00929797    0.00914527
     atom    4 type  1   force =     0.00921688    0.00920329    0.00933019
     atom    5 type  1   force =    -0.00927354   -0.00910233   -0.00932157
     atom    6 type  1   force =    -0.00922798   -0.00924952   -0.00915249
     atom    7 type  1   force =    -0.00923976   -0.00936421   -0.00923089
     atom    8 type  1   force =    -0.00920113   -0.00922596   -0.00923735

     Total force =     0.045246     Total SCF correction =     0.000001

     Entering Dynamics:    iteration =    99
                           time      =   0.0958 pico-seconds


ATOMIC_POSITIONS (alat)
Si      -0.126134815  -0.126169071  -0.126119990
Si       0.373897150   0.373866751  -0.126169749
Si       0.373815223  -0.126118222   0.373817546
Si      -0.126154912   0.373843167   0.373894822
Si       0.126130334   0.126202274   0.126109756
Si       0.626144675   0.626137385   0.126177709
Si       0.626144584   0.126087798   0.626148049
Si       0.126157763   0.626149917   0.626141857


     kinetic energy (Ekin) =     0.00212890 Ry
     temperature           =    32.01197052 K 
     Ekin + Etot (const)   =   -62.17579410 Ry

     Linear momentum :    0.0000000000    0.0000000000    0.0000000000

     Writing output data file pwscf.save

     second order wave-functions extrapolation
     NEW-OLD atomic charge density approx. for the potential

     total cpu time spent up to now is        6.1 secs

     per-process dynamical memory:     3.5 Mb

     Self-consistent Calculation

     iteration #  1     ecut=     8.00 Ry     beta=0.70
     Davidson diagonalization with overlap
     ethr =  1.00E-06,  avg # of iterations =  2.0

     Threshold (ethr) on eigenvalues was too large:
     Diagonalizing with lowered threshold

     Davidson diagonalization with overlap
     ethr =  3.50E-09,  avg # of iterations =  1.0

     total cpu time spent up to now is        6.1 secs

     total energy              =     -62.17828368 Ry
     Harris-Foulkes estimate   =     -62.17828341 Ry
     estimated scf accuracy    <       0.00000113 Ry

     iteration #  2     ecut=     8.00 Ry     beta=0.70
     Davidson diagonalization with overlap
     ethr =  3.54E-09,  avg # of iterations =  1.0

     total cpu time spent up to now is        6.1 secs

     total energy              =     -62.17828372 Ry
     Harris-Foulkes estimate   =     -62.17828369 Ry
     estimated scf accuracy    <       0.00000009 Ry

     iteration #  3     ecut=     8.00 Ry     beta=0.70
     Davidson diagonalization with overlap
     ethr =  2.79E-10,  avg # of iterations =  1.0

     total cpu time spent up to now is        6.1 secs

     End of self-consistent calculation

          k = 0.0000 0.0000 0.0000 (   437 PWs)   bands (ev):

    -5.2219  -1.0603  -1.0603  -1.0603  -0.9870  -0.9870  -0.9870   3.5807
     3.5807   3.5807   3.6241   3.6241   3.6241   6.6447   6.6447   6.8340

     highest occupied level (ev):     6.8340

!    total energy              =     -62.17828372 Ry
     Harris-Foulkes estimate   =     -62.17828372 Ry
     estimated scf accuracy    <          2.7E-10 Ry

     convergence has been achieved in   3 iterations

     Forces acting on atoms (Ry/au):

     atom    1 type  1   force =     0.00808606    0.00800976    0.00811716
     atom    2 type  1   force =     0.00817381    0.00809293    0.00801069
     atom    3 type  1   force =     0.00796041    0.00813001    0.00797028
     atom    4 type  1   force =     0.00804595    0.00803292    0.00816785
     atom    5 type  1   force =    -0.00810629   -0.00792458   -0.00815719
     atom    6 type  1   force =    -0.00805682   -0.00808139   -0.00797981
     atom    7 type  1   force =    -0.00807248   -0.00820342   -0.00806258
     atom    8 type  1   force =    -0.00803064   -0.00805623   -0.00806640

     Total force =     0.039519     Total SCF correction =     0.000001

     Entering Dynamics:    iteration =   100
                           time      =   0.0968 pico-seconds


ATOMIC_POSITIONS (alat)
Si      -0.125951244  -0.125987409  -0.125935579
Si       0.374082874   0.374050405  -0.125988274
Si       0.373995590  -0.125933632   0.373998125
Si      -0.125972514   0.374025321   0.374080417
Si       0.125946393   0.126022978   0.125924521
Si       0.625961868   0.625953916   0.125996783
Si       0.625961459   0.125901263   0.625965162
Si       0.125975574   0.625967159   0.625958846


     kinetic energy (Ekin) =     0.00248863 Ry
     temperature           =    37.42122904 K 
     Ekin + Etot (const)   =   -62.17579509 Ry

     Linear momentum :    0.0000000000    0.0000000000    0.0000000000

     The maximum number of steps has been reached.

     End of molecular dynamics calculation

     diffusion coefficients :
     atom     1   D =       0.00000013 cm^2/s
     atom     2   D =       0.00000013 cm^2/s
     atom     3   D =       0.00000013 cm^2/s
     atom     4   D =       0.00000013 cm^2/s
     atom     5   D =       0.00000013 cm^2/s
     atom     6   D =       0.00000013 cm^2/s
     atom     7   D =       0.00000013 cm^2/s
     atom     8   D =       0.00000013 cm^2/s

     < D > =       0.00000013 cm^2/s

     Writing output data file pwscf.save
 
     init_run     :      0.01s CPU      0.02s WALL (       1 calls)
     electrons    :      2.92s CPU      3.05s WALL (     100 calls)
     update_pot   :      0.35s CPU      0.38s WALL (      99 calls)
     forces       :      0.20s CPU      0.22s WALL (     100 calls)

     Called by init_run:
     wfcinit      :      0.00s CPU      0.01s WALL (       1 calls)
     potinit      :      0.00s CPU      0.00s WALL (       1 calls)

     Called by electrons:
     c_bands      :      2.16s CPU      2.25s WALL (     389 calls)
     sum_band     :      0.41s CPU      0.42s WALL (     389 calls)
     v_of_rho     :      0.15s CPU      0.16s WALL (     390 calls)
     mix_rho      :      0.06s CPU      0.06s WALL (     389 calls)

     Called by c_bands:
     init_us_2    :      0.05s CPU      0.05s WALL (     779 calls)
     cegterg      :      2.05s CPU      2.14s WALL (     389 calls)

     Called by sum_band:

     Called by *egterg:
     h_psi        :      1.40s CPU      1.48s WALL (     933 calls)
     g_psi        :      0.02s CPU      0.02s WALL (     543 calls)
     cdiaghg      :      0.38s CPU      0.37s WALL (     734 calls)

     Called by h_psi:
     h_psi:pot    :      1.40s CPU      1.47s WALL (     933 calls)
     h_psi:calbec :      0.09s CPU      0.08s WALL (     933 calls)
     add_vuspsi   :      0.07s CPU      0.07s WALL (     933 calls)

     General routines
     calbec       :      0.12s CPU      0.13s WALL (    1431 calls)
     fft          :      0.10s CPU      0.14s WALL (    1957 calls)
     fftw         :      1.39s CPU      1.44s WALL (   32736 calls)
     davcio       :      0.02s CPU      0.03s WALL (    1295 calls)
 
     Parallel routines
     fft_scatter  :      0.36s CPU      0.41s WALL (   34693 calls)
 
     PWSCF        :     5.71s CPU         6.11s WALL

 
   This run was terminated on:  14:30:56  23Aug2016            

=------------------------------------------------------------------------------=
   JOB DONE.
=------------------------------------------------------------------------------=
