
     Program PWSCF v.5.4.0 (svn rev. 12496M) starts on 15Jun2016 at 11:19:35 

     This program is part of the open-source Quantum ESPRESSO suite
     for quantum simulation of materials; please cite
         "P. Giannozzi et al., J. Phys.:Condens. Matter 21 395502 (2009);
          URL http://www.quantum-espresso.org", 
     in publications or presentations arising from this work. More details at
     http://www.quantum-espresso.org/quote
 
           HOST :    @host@
           ARCH :    x86_64
             CC :    cc
            CPP :    cpp
            F90 :    mpif90
            F77 :    gfortran
         DFLAGS :    -D__GFORTRAN -D__STD_F95 -D__DFTI -D__MPI -D__PARA
      BLAS LIBS :    -lmkl_gf_lp64  -lmkl_sequential -lmkl_core
    LAPACK LIBS :    
       FFT LIBS :    
      MASS LIBS :    

     Parallel version (MPI), running on     2 processors
     R & G space division:  proc/nbgrp/npool/nimage =       2
     Waiting for input...
     Reading input from standard input
     Message from routine read_cards :
     DEPRECATED: no units specified in ATOMIC_POSITIONS card
     Message from routine read_cards :
     ATOMIC_POSITIONS: units set to alat

     Current dimensions of program PWSCF are:
     Max number of different atomic species (ntypx) = 10
     Max number of k-points (npk) =  40000
     Max angular momentum in pseudopotentials (lmaxx) =  3

     Subspace diagonalization in iterative solution of the eigenvalue problem:
     a serial algorithm will be used

 
     Parallelization info
     --------------------
     sticks:   dense  smooth     PW     G-vecs:    dense   smooth      PW
     Min          60      60     18                  434      434      83
     Max          61      61     19                  435      435      86
     Sum         121     121     37                  869      869     169
 


     bravais-lattice index     =            2
     lattice parameter (alat)  =      10.1800  a.u.
     unit-cell volume          =     263.7445 (a.u.)^3
     number of atoms/cell      =            2
     number of atomic types    =            1
     number of electrons       =         8.00
     number of Kohn-Sham states=            4
     kinetic-energy cutoff     =       8.0000  Ry
     charge density cutoff     =      32.0000  Ry
     convergence threshold     =      1.0E-08
     mixing beta               =       0.7000
     number of iterations used =            8  plain     mixing
     Exchange-correlation      =  SLA  PZ   NOGX NOGC ( 1  1  0  0 0 0)
     nstep                     =          100


     celldm(1)=  10.180000  celldm(2)=   0.000000  celldm(3)=   0.000000
     celldm(4)=   0.000000  celldm(5)=   0.000000  celldm(6)=   0.000000

     crystal axes: (cart. coord. in units of alat)
               a(1) = (  -0.500000   0.000000   0.500000 )  
               a(2) = (   0.000000   0.500000   0.500000 )  
               a(3) = (  -0.500000   0.500000   0.000000 )  

     reciprocal axes: (cart. coord. in units 2 pi/alat)
               b(1) = ( -1.000000 -1.000000  1.000000 )  
               b(2) = (  1.000000  1.000000  1.000000 )  
               b(3) = ( -1.000000  1.000000 -1.000000 )  


     PseudoPot. # 1 for Si read from file:
     /home/nvarini/espresso_hdf5/espresso/pseudo/Si.pz-vbc.UPF
     MD5 check sum: 6dfa03ddd5817404712e03e4d12deb78
     Pseudo is Norm-conserving, Zval =  4.0
     Generated by new atomic code, or converted to UPF format
     Using radial grid of  431 points,  2 beta functions with: 
                l(1) =   0
                l(2) =   1

     atomic species   valence    mass     pseudopotential
        Si             4.00    28.08600     Si( 1.00)

     No symmetry found



   Cartesian axes

     site n.     atom                  positions (alat units)
         1           Si  tau(   1) = (  -0.1230000  -0.1230000  -0.1230000  )
         2           Si  tau(   2) = (   0.1230000   0.1230000   0.1230000  )

     number of k points=     4
                       cart. coord. in units 2pi/alat
        k(    1) = (   0.0000000   0.0000000   0.0000000), wk =   0.5000000
        k(    2) = (   1.0000000   0.0000000   0.0000000), wk =   0.5000000
        k(    3) = (   0.0000000   1.0000000   0.0000000), wk =   0.5000000
        k(    4) = (   0.0000000   0.0000000   1.0000000), wk =   0.5000000

     Dense  grid:      869 G-vectors     FFT dimensions: (  15,  15,  15)

     Largest allocated arrays     est. size (Mb)     dimensions
        Kohn-Sham Wavefunctions         0.00 Mb     (      57,    4)
        NL pseudopotentials             0.01 Mb     (      57,    8)
        Each V/rho on FFT grid          0.03 Mb     (    1800)
        Each G-vector array             0.00 Mb     (     435)
        G-vector shells                 0.00 Mb     (      31)
     Largest temporary arrays     est. size (Mb)     dimensions
        Auxiliary wavefunctions         0.01 Mb     (      57,   16)
        Each subspace H/S matrix        0.00 Mb     (      16,   16)
        Each <psi_i|beta_j> matrix      0.00 Mb     (       8,    4)
        Arrays for rho mixing           0.22 Mb     (    1800,    8)

     Initial potential from superposition of free atoms

     starting charge    7.99901, renormalised to    8.00000
     Starting wfc are    8 randomized atomic wfcs

     total cpu time spent up to now is        0.0 secs

     per-process dynamical memory:     1.4 Mb

     Self-consistent Calculation

     iteration #  1     ecut=     8.00 Ry     beta=0.70
     Davidson diagonalization with overlap
     ethr =  1.00E-02,  avg # of iterations =  2.0

     total cpu time spent up to now is        0.0 secs

     total energy              =     -15.53709678 Ry
     Harris-Foulkes estimate   =     -15.57474457 Ry
     estimated scf accuracy    <       0.11047324 Ry

     iteration #  2     ecut=     8.00 Ry     beta=0.70
     Davidson diagonalization with overlap
     ethr =  1.38E-03,  avg # of iterations =  1.0

     total cpu time spent up to now is        0.0 secs

     total energy              =     -15.54349076 Ry
     Harris-Foulkes estimate   =     -15.54384650 Ry
     estimated scf accuracy    <       0.00405805 Ry

     iteration #  3     ecut=     8.00 Ry     beta=0.70
     Davidson diagonalization with overlap
     ethr =  5.07E-05,  avg # of iterations =  1.8

     total cpu time spent up to now is        0.0 secs

     total energy              =     -15.54393964 Ry
     Harris-Foulkes estimate   =     -15.54394928 Ry
     estimated scf accuracy    <       0.00008765 Ry

     iteration #  4     ecut=     8.00 Ry     beta=0.70
     Davidson diagonalization with overlap
     ethr =  1.10E-06,  avg # of iterations =  2.2

     total cpu time spent up to now is        0.0 secs

     total energy              =     -15.54395079 Ry
     Harris-Foulkes estimate   =     -15.54395148 Ry
     estimated scf accuracy    <       0.00000273 Ry

     iteration #  5     ecut=     8.00 Ry     beta=0.70
     Davidson diagonalization with overlap
     ethr =  3.41E-08,  avg # of iterations =  2.2

     total cpu time spent up to now is        0.1 secs

     total energy              =     -15.54395124 Ry
     Harris-Foulkes estimate   =     -15.54395124 Ry
     estimated scf accuracy    <       0.00000004 Ry

     iteration #  6     ecut=     8.00 Ry     beta=0.70
     Davidson diagonalization with overlap
     ethr =  5.16E-10,  avg # of iterations =  3.2

     total cpu time spent up to now is        0.1 secs

     End of self-consistent calculation

          k = 0.0000 0.0000 0.0000 (   113 PWs)   bands (ev):

    -5.2233   6.4884   6.8187   6.8188

          k = 1.0000 0.0000 0.0000 (   108 PWs)   bands (ev):

    -1.0940  -0.9565   3.5685   3.6377

          k = 0.0000 1.0000 0.0000 (   108 PWs)   bands (ev):

    -1.0940  -0.9565   3.5685   3.6377

          k = 0.0000 0.0000 1.0000 (   108 PWs)   bands (ev):

    -1.0939  -0.9565   3.5686   3.6377

     highest occupied level (ev):     6.8188

!    total energy              =     -15.54395126 Ry
     Harris-Foulkes estimate   =     -15.54395126 Ry
     estimated scf accuracy    <          4.7E-09 Ry

     convergence has been achieved in   6 iterations

     Forces acting on atoms (Ry/au):

     atom    1 type  1   force =    -0.01508704   -0.01508744   -0.01509013
     atom    2 type  1   force =     0.01508704    0.01508744    0.01509013

     Total force =     0.036958     Total SCF correction =     0.000015

     Molecular Dynamics Calculation
     mass Si               =    28.09
     Time step             =    20.00 a.u.,  0.9676 femto-seconds

     Entering Dynamics:    iteration =     1
                           time      =   0.0010 pico-seconds


ATOMIC_POSITIONS (alat)
Si      -0.123011579  -0.123011579  -0.123011581
Si       0.123011579   0.123011579   0.123011581


     kinetic energy (Ekin) =     0.00000000 Ry
     temperature           =     0.00000000 K 
     Ekin + Etot (const)   =   -15.54395126 Ry

     Linear momentum :    0.0000000000    0.0000000000    0.0000000000

     Writing output data file pwscf.save
     NEW-OLD atomic charge density approx. for the potential

     total cpu time spent up to now is        0.1 secs

     per-process dynamical memory:     2.0 Mb

     Self-consistent Calculation

     iteration #  1     ecut=     8.00 Ry     beta=0.70
     Davidson diagonalization with overlap
     ethr =  1.00E-06,  avg # of iterations =  1.2

     Threshold (ethr) on eigenvalues was too large:
     Diagonalizing with lowered threshold

     Davidson diagonalization with overlap
     ethr =  2.77E-11,  avg # of iterations =  3.8

     total cpu time spent up to now is        0.1 secs

     End of self-consistent calculation

          k = 0.0000 0.0000 0.0000 (   113 PWs)   bands (ev):

    -5.2234   6.4896   6.8179   6.8180

          k = 1.0000 0.0000 0.0000 (   108 PWs)   bands (ev):

    -1.0936  -0.9570   3.5686   3.6374

          k = 0.0000 1.0000 0.0000 (   108 PWs)   bands (ev):

    -1.0936  -0.9570   3.5686   3.6374

          k = 0.0000 0.0000 1.0000 (   108 PWs)   bands (ev):

    -1.0936  -0.9570   3.5686   3.6374

     highest occupied level (ev):     6.8180

!    total energy              =     -15.54396190 Ry
     Harris-Foulkes estimate   =     -15.54396190 Ry
     estimated scf accuracy    <          3.0E-09 Ry

     convergence has been achieved in   1 iterations

     Forces acting on atoms (Ry/au):

     atom    1 type  1   force =    -0.01499584   -0.01499570   -0.01499557
     atom    2 type  1   force =     0.01499584    0.01499570    0.01499557

     Total force =     0.036732     Total SCF correction =     0.000012

     Entering Dynamics:    iteration =     2
                           time      =   0.0019 pico-seconds


ATOMIC_POSITIONS (alat)
Si      -0.123046176  -0.123046176  -0.123046180
Si       0.123046176   0.123046176   0.123046180


     kinetic energy (Ekin) =     0.00001061 Ry
     temperature           =     1.11641519 K 
     Ekin + Etot (const)   =   -15.54395129 Ry

     Linear momentum :    0.0000000000    0.0000000000    0.0000000000

     Writing output data file pwscf.save

     first order wave-functions extrapolation
     NEW-OLD atomic charge density approx. for the potential

     total cpu time spent up to now is        0.1 secs

     per-process dynamical memory:     2.6 Mb

     Self-consistent Calculation

     iteration #  1     ecut=     8.00 Ry     beta=0.70
     Davidson diagonalization with overlap
     ethr =  1.00E-06,  avg # of iterations =  1.2

     Threshold (ethr) on eigenvalues was too large:
     Diagonalizing with lowered threshold

     Davidson diagonalization with overlap
     ethr =  1.41E-10,  avg # of iterations =  3.8

     total cpu time spent up to now is        0.2 secs

     total energy              =     -15.54399330 Ry
     Harris-Foulkes estimate   =     -15.54399330 Ry
     estimated scf accuracy    <       0.00000001 Ry

     iteration #  2     ecut=     8.00 Ry     beta=0.70
     Davidson diagonalization with overlap
     ethr =  1.73E-10,  avg # of iterations =  1.0

     total cpu time spent up to now is        0.2 secs

     End of self-consistent calculation

          k = 0.0000 0.0000 0.0000 (   113 PWs)   bands (ev):

    -5.2233   6.4934   6.8161   6.8161

          k = 1.0000 0.0000 0.0000 (   108 PWs)   bands (ev):

    -1.0923  -0.9581   3.5692   3.6368

          k = 0.0000 1.0000 0.0000 (   108 PWs)   bands (ev):

    -1.0923  -0.9581   3.5692   3.6368

          k = 0.0000 0.0000 1.0000 (   108 PWs)   bands (ev):

    -1.0923  -0.9581   3.5692   3.6368

     highest occupied level (ev):     6.8161

!    total energy              =     -15.54399330 Ry
     Harris-Foulkes estimate   =     -15.54399330 Ry
     estimated scf accuracy    <          1.0E-09 Ry

     convergence has been achieved in   2 iterations

     Forces acting on atoms (Ry/au):

     atom    1 type  1   force =    -0.01472353   -0.01472346   -0.01472316
     atom    2 type  1   force =     0.01472353    0.01472346    0.01472316

     Total force =     0.036065     Total SCF correction =     0.000004

     Entering Dynamics:    iteration =     3
                           time      =   0.0029 pico-seconds


ATOMIC_POSITIONS (alat)
Si      -0.123103372  -0.123103372  -0.123103378
Si       0.123103372   0.123103372   0.123103378


     kinetic energy (Ekin) =     0.00004191 Ry
     temperature           =     4.41167096 K 
     Ekin + Etot (const)   =   -15.54395139 Ry

     Linear momentum :    0.0000000000    0.0000000000    0.0000000000

     Writing output data file pwscf.save

     second order wave-functions extrapolation
     NEW-OLD atomic charge density approx. for the potential

     total cpu time spent up to now is        0.2 secs

     per-process dynamical memory:     2.6 Mb

     Self-consistent Calculation

     iteration #  1     ecut=     8.00 Ry     beta=0.70
     Davidson diagonalization with overlap
     ethr =  1.00E-06,  avg # of iterations =  1.0

     Threshold (ethr) on eigenvalues was too large:
     Diagonalizing with lowered threshold

     Davidson diagonalization with overlap
     ethr =  4.06E-10,  avg # of iterations =  1.0

     total cpu time spent up to now is        0.2 secs

     total energy              =     -15.54404396 Ry
     Harris-Foulkes estimate   =     -15.54404395 Ry
     estimated scf accuracy    <       0.00000003 Ry

     iteration #  2     ecut=     8.00 Ry     beta=0.70
     Davidson diagonalization with overlap
     ethr =  4.20E-10,  avg # of iterations =  1.0

     total cpu time spent up to now is        0.2 secs

     End of self-consistent calculation

          k = 0.0000 0.0000 0.0000 (   113 PWs)   bands (ev):

    -5.2232   6.4996   6.8128   6.8128

          k = 1.0000 0.0000 0.0000 (   108 PWs)   bands (ev):

    -1.0901  -0.9600   3.5701   3.6358

          k = 0.0000 1.0000 0.0000 (   108 PWs)   bands (ev):

    -1.0901  -0.9600   3.5701   3.6358

          k = 0.0000 0.0000 1.0000 (   108 PWs)   bands (ev):

    -1.0901  -0.9600   3.5701   3.6358

     highest occupied level (ev):     6.8128

!    total energy              =     -15.54404396 Ry
     Harris-Foulkes estimate   =     -15.54404396 Ry
     estimated scf accuracy    <          2.7E-09 Ry

     convergence has been achieved in   2 iterations

     Forces acting on atoms (Ry/au):

     atom    1 type  1   force =    -0.01427432   -0.01427439   -0.01427481
     atom    2 type  1   force =     0.01427432    0.01427439    0.01427481

     Total force =     0.034965     Total SCF correction =     0.000007

     Entering Dynamics:    iteration =     4
                           time      =   0.0039 pico-seconds


ATOMIC_POSITIONS (alat)
Si      -0.123182479  -0.123182479  -0.123182486
Si       0.123182479   0.123182479   0.123182486


     kinetic energy (Ekin) =     0.00009241 Ry
     temperature           =     9.72728943 K 
     Ekin + Etot (const)   =   -15.54395154 Ry

     Linear momentum :    0.0000000000    0.0000000000    0.0000000000

     Writing output data file pwscf.save

     second order wave-functions extrapolation
     NEW-OLD atomic charge density approx. for the potential

     total cpu time spent up to now is        0.2 secs

     per-process dynamical memory:     2.6 Mb

     Self-consistent Calculation

     iteration #  1     ecut=     8.00 Ry     beta=0.70
     Davidson diagonalization with overlap
     ethr =  1.00E-06,  avg # of iterations =  1.0

     Threshold (ethr) on eigenvalues was too large:
     Diagonalizing with lowered threshold

     Davidson diagonalization with overlap
     ethr =  7.70E-10,  avg # of iterations =  1.0

     total cpu time spent up to now is        0.2 secs

     total energy              =     -15.54411144 Ry
     Harris-Foulkes estimate   =     -15.54411143 Ry
     estimated scf accuracy    <       0.00000006 Ry

     iteration #  2     ecut=     8.00 Ry     beta=0.70
     Davidson diagonalization with overlap
     ethr =  7.89E-10,  avg # of iterations =  1.0

     total cpu time spent up to now is        0.2 secs

     End of self-consistent calculation

          k = 0.0000 0.0000 0.0000 (   113 PWs)   bands (ev):

    -5.2230   6.5082   6.8084   6.8084

          k = 1.0000 0.0000 0.0000 (   108 PWs)   bands (ev):

    -1.0871  -0.9627   3.5713   3.6345

          k = 0.0000 1.0000 0.0000 (   108 PWs)   bands (ev):

    -1.0871  -0.9627   3.5713   3.6345

          k = 0.0000 0.0000 1.0000 (   108 PWs)   bands (ev):

    -1.0871  -0.9627   3.5713   3.6345

     highest occupied level (ev):     6.8084

!    total energy              =     -15.54411144 Ry
     Harris-Foulkes estimate   =     -15.54411144 Ry
     estimated scf accuracy    <          4.9E-09 Ry

     convergence has been achieved in   2 iterations

     Forces acting on atoms (Ry/au):

     atom    1 type  1   force =    -0.01365561   -0.01365555   -0.01365571
     atom    2 type  1   force =     0.01365561    0.01365555    0.01365571

     Total force =     0.033449     Total SCF correction =     0.000010

     Entering Dynamics:    iteration =     5
                           time      =   0.0048 pico-seconds


ATOMIC_POSITIONS (alat)
Si      -0.123282546  -0.123282546  -0.123282556
Si       0.123282546   0.123282546   0.123282556


     kinetic energy (Ekin) =     0.00015969 Ry
     temperature           =    16.80853165 K 
     Ekin + Etot (const)   =   -15.54395175 Ry

     Linear momentum :    0.0000000000    0.0000000000    0.0000000000

     Writing output data file pwscf.save

     second order wave-functions extrapolation
     NEW-OLD atomic charge density approx. for the potential

     total cpu time spent up to now is        0.3 secs

     per-process dynamical memory:     2.6 Mb

     Self-consistent Calculation

     iteration #  1     ecut=     8.00 Ry     beta=0.70
     Davidson diagonalization with overlap
     ethr =  1.00E-06,  avg # of iterations =  1.0

     Threshold (ethr) on eigenvalues was too large:
     Diagonalizing with lowered threshold

     Davidson diagonalization with overlap
     ethr =  1.23E-09,  avg # of iterations =  1.0

     total cpu time spent up to now is        0.3 secs

     total energy              =     -15.54419253 Ry
     Harris-Foulkes estimate   =     -15.54419250 Ry
     estimated scf accuracy    <       0.00000010 Ry

     iteration #  2     ecut=     8.00 Ry     beta=0.70
     Davidson diagonalization with overlap
     ethr =  1.25E-09,  avg # of iterations =  1.0

     total cpu time spent up to now is        0.3 secs

     End of self-consistent calculation

          k = 0.0000 0.0000 0.0000 (   113 PWs)   bands (ev):

    -5.2228   6.5191   6.8028   6.8028

          k = 1.0000 0.0000 0.0000 (   108 PWs)   bands (ev):

    -1.0833  -0.9660   3.5728   3.6327

          k = 0.0000 1.0000 0.0000 (   108 PWs)   bands (ev):

    -1.0833  -0.9660   3.5728   3.6327

          k = 0.0000 0.0000 1.0000 (   108 PWs)   bands (ev):

    -1.0833  -0.9660   3.5728   3.6327

     highest occupied level (ev):     6.8028

!    total energy              =     -15.54419253 Ry
     Harris-Foulkes estimate   =     -15.54419253 Ry
     estimated scf accuracy    <          7.7E-09 Ry

     convergence has been achieved in   2 iterations

     Forces acting on atoms (Ry/au):

     atom    1 type  1   force =    -0.01287546   -0.01287544   -0.01287543
     atom    2 type  1   force =     0.01287546    0.01287544    0.01287543

     Total force =     0.031538     Total SCF correction =     0.000012

     Entering Dynamics:    iteration =     6
                           time      =   0.0058 pico-seconds


ATOMIC_POSITIONS (alat)
Si      -0.123402376  -0.123402377  -0.123402389
Si       0.123402376   0.123402377   0.123402389


     kinetic energy (Ekin) =     0.00024053 Ry
     temperature           =    25.31743964 K 
     Ekin + Etot (const)   =   -15.54395200 Ry

     Linear momentum :    0.0000000000    0.0000000000    0.0000000000

     Writing output data file pwscf.save

     second order wave-functions extrapolation
     NEW-OLD atomic charge density approx. for the potential

     total cpu time spent up to now is        0.3 secs

     per-process dynamical memory:     2.6 Mb

     Self-consistent Calculation

     iteration #  1     ecut=     8.00 Ry     beta=0.70
     Davidson diagonalization with overlap
     ethr =  1.00E-06,  avg # of iterations =  1.8

     Threshold (ethr) on eigenvalues was too large:
     Diagonalizing with lowered threshold

     Davidson diagonalization with overlap
     ethr =  1.77E-09,  avg # of iterations =  1.0

     total cpu time spent up to now is        0.3 secs

     total energy              =     -15.54428337 Ry
     Harris-Foulkes estimate   =     -15.54428334 Ry
     estimated scf accuracy    <       0.00000014 Ry

     iteration #  2     ecut=     8.00 Ry     beta=0.70
     Davidson diagonalization with overlap
     ethr =  1.79E-09,  avg # of iterations =  1.0

     total cpu time spent up to now is        0.3 secs

     total energy              =     -15.54428337 Ry
     Harris-Foulkes estimate   =     -15.54428337 Ry
     estimated scf accuracy    <       0.00000001 Ry

     iteration #  3     ecut=     8.00 Ry     beta=0.70
     Davidson diagonalization with overlap
     ethr =  1.38E-10,  avg # of iterations =  1.0

     total cpu time spent up to now is        0.3 secs

     End of self-consistent calculation

          k = 0.0000 0.0000 0.0000 (   113 PWs)   bands (ev):

    -5.2226   6.5322   6.7961   6.7961

          k = 1.0000 0.0000 0.0000 (   108 PWs)   bands (ev):

    -1.0788  -0.9700   3.5747   3.6307

          k = 0.0000 1.0000 0.0000 (   108 PWs)   bands (ev):

    -1.0788  -0.9700   3.5747   3.6307

          k = 0.0000 0.0000 1.0000 (   108 PWs)   bands (ev):

    -1.0788  -0.9700   3.5747   3.6307

     highest occupied level (ev):     6.7961

!    total energy              =     -15.54428338 Ry
     Harris-Foulkes estimate   =     -15.54428338 Ry
     estimated scf accuracy    <          3.8E-11 Ry

     convergence has been achieved in   3 iterations

     Forces acting on atoms (Ry/au):

     atom    1 type  1   force =    -0.01194733   -0.01194733   -0.01194723
     atom    2 type  1   force =     0.01194733    0.01194733    0.01194723

     Total force =     0.029265     Total SCF correction =     0.000001

     Entering Dynamics:    iteration =     7
                           time      =   0.0068 pico-seconds


ATOMIC_POSITIONS (alat)
Si      -0.123540545  -0.123540545  -0.123540559
Si       0.123540545   0.123540545   0.123540559


     kinetic energy (Ekin) =     0.00033110 Ry
     temperature           =    34.85092152 K 
     Ekin + Etot (const)   =   -15.54395228 Ry

     Linear momentum :    0.0000000000    0.0000000000    0.0000000000

     Writing output data file pwscf.save

     second order wave-functions extrapolation
     NEW-OLD atomic charge density approx. for the potential

     total cpu time spent up to now is        0.4 secs

     per-process dynamical memory:     2.6 Mb

     Self-consistent Calculation

     iteration #  1     ecut=     8.00 Ry     beta=0.70
     Davidson diagonalization with overlap
     ethr =  1.00E-06,  avg # of iterations =  1.8

     Threshold (ethr) on eigenvalues was too large:
     Diagonalizing with lowered threshold

     Davidson diagonalization with overlap
     ethr =  2.35E-09,  avg # of iterations =  1.0

     total cpu time spent up to now is        0.4 secs

     total energy              =     -15.54437970 Ry
     Harris-Foulkes estimate   =     -15.54437966 Ry
     estimated scf accuracy    <       0.00000019 Ry

     iteration #  2     ecut=     8.00 Ry     beta=0.70
     Davidson diagonalization with overlap
     ethr =  2.41E-09,  avg # of iterations =  1.0

     total cpu time spent up to now is        0.4 secs

     total energy              =     -15.54437970 Ry
     Harris-Foulkes estimate   =     -15.54437970 Ry
     estimated scf accuracy    <       0.00000002 Ry

     iteration #  3     ecut=     8.00 Ry     beta=0.70
     Davidson diagonalization with overlap
     ethr =  1.89E-10,  avg # of iterations =  1.0

     total cpu time spent up to now is        0.4 secs

     End of self-consistent calculation

          k = 0.0000 0.0000 0.0000 (   113 PWs)   bands (ev):

    -5.2223   6.5472   6.7884   6.7884

          k = 1.0000 0.0000 0.0000 (   108 PWs)   bands (ev):

    -1.0737  -0.9746   3.5769   3.6283

          k = 0.0000 1.0000 0.0000 (   108 PWs)   bands (ev):

    -1.0737  -0.9746   3.5769   3.6283

          k = 0.0000 0.0000 1.0000 (   108 PWs)   bands (ev):

    -1.0737  -0.9746   3.5769   3.6283

     highest occupied level (ev):     6.7884

!    total energy              =     -15.54437970 Ry
     Harris-Foulkes estimate   =     -15.54437970 Ry
     estimated scf accuracy    <          4.5E-11 Ry

     convergence has been achieved in   3 iterations

     Forces acting on atoms (Ry/au):

     atom    1 type  1   force =    -0.01088146   -0.01088145   -0.01088132
     atom    2 type  1   force =     0.01088146    0.01088145    0.01088132

     Total force =     0.026654     Total SCF correction =     0.000002

     Entering Dynamics:    iteration =     8
                           time      =   0.0077 pico-seconds


ATOMIC_POSITIONS (alat)
Si      -0.123695416  -0.123695417  -0.123695433
Si       0.123695416   0.123695417   0.123695433


     kinetic energy (Ekin) =     0.00042714 Ry
     temperature           =    44.96045244 K 
     Ekin + Etot (const)   =   -15.54395256 Ry

     Linear momentum :    0.0000000000    0.0000000000    0.0000000000

     Writing output data file pwscf.save

     second order wave-functions extrapolation
     NEW-OLD atomic charge density approx. for the potential

     total cpu time spent up to now is        0.4 secs

     per-process dynamical memory:     2.6 Mb

     Self-consistent Calculation

     iteration #  1     ecut=     8.00 Ry     beta=0.70
     Davidson diagonalization with overlap
     ethr =  1.00E-06,  avg # of iterations =  1.8

     Threshold (ethr) on eigenvalues was too large:
     Diagonalizing with lowered threshold

     Davidson diagonalization with overlap
     ethr =  3.01E-09,  avg # of iterations =  1.0

     total cpu time spent up to now is        0.4 secs

     total energy              =     -15.54447701 Ry
     Harris-Foulkes estimate   =     -15.54447696 Ry
     estimated scf accuracy    <       0.00000024 Ry

     iteration #  2     ecut=     8.00 Ry     beta=0.70
     Davidson diagonalization with overlap
     ethr =  3.05E-09,  avg # of iterations =  1.0

     total cpu time spent up to now is        0.4 secs

     total energy              =     -15.54447702 Ry
     Harris-Foulkes estimate   =     -15.54447701 Ry
     estimated scf accuracy    <       0.00000002 Ry

     iteration #  3     ecut=     8.00 Ry     beta=0.70
     Davidson diagonalization with overlap
     ethr =  2.34E-10,  avg # of iterations =  1.0

     total cpu time spent up to now is        0.4 secs

     End of self-consistent calculation

          k = 0.0000 0.0000 0.0000 (   113 PWs)   bands (ev):

    -5.2221   6.5642   6.7797   6.7798

          k = 1.0000 0.0000 0.0000 (   108 PWs)   bands (ev):

    -1.0680  -0.9797   3.5794   3.6256

          k = 0.0000 1.0000 0.0000 (   108 PWs)   bands (ev):

    -1.0680  -0.9797   3.5794   3.6256

          k = 0.0000 0.0000 1.0000 (   108 PWs)   bands (ev):

    -1.0680  -0.9797   3.5794   3.6256

     highest occupied level (ev):     6.7798

!    total energy              =     -15.54447702 Ry
     Harris-Foulkes estimate   =     -15.54447702 Ry
     estimated scf accuracy    <          5.7E-11 Ry

     convergence has been achieved in   3 iterations

     Forces acting on atoms (Ry/au):

     atom    1 type  1   force =    -0.00969445   -0.00969444   -0.00969432
     atom    2 type  1   force =     0.00969445    0.00969444    0.00969432

     Total force =     0.023746     Total SCF correction =     0.000001

     Entering Dynamics:    iteration =     9
                           time      =   0.0087 pico-seconds


ATOMIC_POSITIONS (alat)
Si      -0.123865168  -0.123865168  -0.123865186
Si       0.123865168   0.123865168   0.123865186


     kinetic energy (Ekin) =     0.00052418 Ry
     temperature           =    55.17397078 K 
     Ekin + Etot (const)   =   -15.54395284 Ry

     Linear momentum :    0.0000000000    0.0000000000    0.0000000000

     Writing output data file pwscf.save

     second order wave-functions extrapolation
     NEW-OLD atomic charge density approx. for the potential

     total cpu time spent up to now is        0.5 secs

     per-process dynamical memory:     2.6 Mb

     Self-consistent Calculation

     iteration #  1     ecut=     8.00 Ry     beta=0.70
     Davidson diagonalization with overlap
     ethr =  1.00E-06,  avg # of iterations =  1.8

     Threshold (ethr) on eigenvalues was too large:
     Diagonalizing with lowered threshold

     Davidson diagonalization with overlap
     ethr =  3.60E-09,  avg # of iterations =  1.0

     total cpu time spent up to now is        0.5 secs

     total energy              =     -15.54457082 Ry
     Harris-Foulkes estimate   =     -15.54457076 Ry
     estimated scf accuracy    <       0.00000029 Ry

     iteration #  2     ecut=     8.00 Ry     beta=0.70
     Davidson diagonalization with overlap
     ethr =  3.65E-09,  avg # of iterations =  1.0

     total cpu time spent up to now is        0.5 secs

     total energy              =     -15.54457083 Ry
     Harris-Foulkes estimate   =     -15.54457082 Ry
     estimated scf accuracy    <       0.00000002 Ry

     iteration #  3     ecut=     8.00 Ry     beta=0.70
     Davidson diagonalization with overlap
     ethr =  2.81E-10,  avg # of iterations =  1.0

     total cpu time spent up to now is        0.5 secs

     End of self-consistent calculation

          k = 0.0000 0.0000 0.0000 (   113 PWs)   bands (ev):

    -5.2219   6.5827   6.7703   6.7703

          k = 1.0000 0.0000 0.0000 (   108 PWs)   bands (ev):

    -1.0619  -0.9854   3.5822   3.6226

          k = 0.0000 1.0000 0.0000 (   108 PWs)   bands (ev):

    -1.0619  -0.9854   3.5822   3.6226

          k = 0.0000 0.0000 1.0000 (   108 PWs)   bands (ev):

    -1.0619  -0.9854   3.5822   3.6226

     highest occupied level (ev):     6.7703

!    total energy              =     -15.54457083 Ry
     Harris-Foulkes estimate   =     -15.54457083 Ry
     estimated scf accuracy    <          7.2E-11 Ry

     convergence has been achieved in   3 iterations

     Forces acting on atoms (Ry/au):

     atom    1 type  1   force =    -0.00840206   -0.00840206   -0.00840194
     atom    2 type  1   force =     0.00840206    0.00840206    0.00840194

     Total force =     0.020581     Total SCF correction =     0.000002

     Entering Dynamics:    iteration =    10
                           time      =   0.0097 pico-seconds


ATOMIC_POSITIONS (alat)
Si      -0.124047816  -0.124047817  -0.124047836
Si       0.124047816   0.124047817   0.124047836


     kinetic energy (Ekin) =     0.00061772 Ry
     temperature           =    65.02003140 K 
     Ekin + Etot (const)   =   -15.54395311 Ry

     Linear momentum :    0.0000000000    0.0000000000    0.0000000000

     Writing output data file pwscf.save

     second order wave-functions extrapolation
     NEW-OLD atomic charge density approx. for the potential

     total cpu time spent up to now is        0.5 secs

     per-process dynamical memory:     2.6 Mb

     Self-consistent Calculation

     iteration #  1     ecut=     8.00 Ry     beta=0.70
     Davidson diagonalization with overlap
     ethr =  1.00E-06,  avg # of iterations =  1.8

     Threshold (ethr) on eigenvalues was too large:
     Diagonalizing with lowered threshold

     Davidson diagonalization with overlap
     ethr =  4.16E-09,  avg # of iterations =  1.0

     total cpu time spent up to now is        0.5 secs

     total energy              =     -15.54465684 Ry
     Harris-Foulkes estimate   =     -15.54465677 Ry
     estimated scf accuracy    <       0.00000034 Ry

     iteration #  2     ecut=     8.00 Ry     beta=0.70
     Davidson diagonalization with overlap
     ethr =  4.21E-09,  avg # of iterations =  1.0

     total cpu time spent up to now is        0.5 secs

     total energy              =     -15.54465685 Ry
     Harris-Foulkes estimate   =     -15.54465685 Ry
     estimated scf accuracy    <       0.00000003 Ry

     iteration #  3     ecut=     8.00 Ry     beta=0.70
     Davidson diagonalization with overlap
     ethr =  3.25E-10,  avg # of iterations =  1.0

     total cpu time spent up to now is        0.5 secs

     End of self-consistent calculation

          k = 0.0000 0.0000 0.0000 (   113 PWs)   bands (ev):

    -5.2217   6.6027   6.7601   6.7601

          k = 1.0000 0.0000 0.0000 (   108 PWs)   bands (ev):

    -1.0554  -0.9914   3.5853   3.6193

          k = 0.0000 1.0000 0.0000 (   108 PWs)   bands (ev):

    -1.0554  -0.9914   3.5853   3.6193

          k = 0.0000 0.0000 1.0000 (   108 PWs)   bands (ev):

    -1.0554  -0.9914   3.5853   3.6193

     highest occupied level (ev):     6.7601

!    total energy              =     -15.54465686 Ry
     Harris-Foulkes estimate   =     -15.54465686 Ry
     estimated scf accuracy    <          8.1E-11 Ry

     convergence has been achieved in   3 iterations

     Forces acting on atoms (Ry/au):

     atom    1 type  1   force =    -0.00702201   -0.00702200   -0.00702187
     atom    2 type  1   force =     0.00702201    0.00702200    0.00702187

     Total force =     0.017200     Total SCF correction =     0.000002

     Entering Dynamics:    iteration =    11
                           time      =   0.0106 pico-seconds


ATOMIC_POSITIONS (alat)
Si      -0.124241243  -0.124241243  -0.124241264
Si       0.124241243   0.124241243   0.124241264


     kinetic energy (Ekin) =     0.00070351 Ry
     temperature           =    74.04981375 K 
     Ekin + Etot (const)   =   -15.54395335 Ry

     Linear momentum :    0.0000000000    0.0000000000    0.0000000000

     Writing output data file pwscf.save

     second order wave-functions extrapolation
     NEW-OLD atomic charge density approx. for the potential

     total cpu time spent up to now is        0.6 secs

     per-process dynamical memory:     2.6 Mb

     Self-consistent Calculation

     iteration #  1     ecut=     8.00 Ry     beta=0.70
     Davidson diagonalization with overlap
     ethr =  1.00E-06,  avg # of iterations =  1.8

     Threshold (ethr) on eigenvalues was too large:
     Diagonalizing with lowered threshold

     Davidson diagonalization with overlap
     ethr =  4.65E-09,  avg # of iterations =  1.0

     total cpu time spent up to now is        0.6 secs

     total energy              =     -15.54473123 Ry
     Harris-Foulkes estimate   =     -15.54473115 Ry
     estimated scf accuracy    <       0.00000038 Ry

     iteration #  2     ecut=     8.00 Ry     beta=0.70
     Davidson diagonalization with overlap
     ethr =  4.70E-09,  avg # of iterations =  1.0

     total cpu time spent up to now is        0.6 secs

     total energy              =     -15.54473124 Ry
     Harris-Foulkes estimate   =     -15.54473123 Ry
     estimated scf accuracy    <       0.00000003 Ry

     iteration #  3     ecut=     8.00 Ry     beta=0.70
     Davidson diagonalization with overlap
     ethr =  3.64E-10,  avg # of iterations =  1.0

     total cpu time spent up to now is        0.6 secs

     End of self-consistent calculation

          k = 0.0000 0.0000 0.0000 (   113 PWs)   bands (ev):

    -5.2215   6.6240   6.7494   6.7494

          k = 1.0000 0.0000 0.0000 (   108 PWs)   bands (ev):

    -1.0486  -0.9978   3.5886   3.6159

          k = 0.0000 1.0000 0.0000 (   108 PWs)   bands (ev):

    -1.0486  -0.9978   3.5886   3.6159

          k = 0.0000 0.0000 1.0000 (   108 PWs)   bands (ev):

    -1.0486  -0.9978   3.5886   3.6159

     highest occupied level (ev):     6.7494

!    total energy              =     -15.54473124 Ry
     Harris-Foulkes estimate   =     -15.54473124 Ry
     estimated scf accuracy    <          8.8E-11 Ry

     convergence has been achieved in   3 iterations

     Forces acting on atoms (Ry/au):

     atom    1 type  1   force =    -0.00557221   -0.00557221   -0.00557207
     atom    2 type  1   force =     0.00557221    0.00557221    0.00557207

     Total force =     0.013649     Total SCF correction =     0.000001

     Entering Dynamics:    iteration =    12
                           time      =   0.0116 pico-seconds


ATOMIC_POSITIONS (alat)
Si      -0.124443223  -0.124443223  -0.124443245
Si       0.124443223   0.124443223   0.124443245


     kinetic energy (Ekin) =     0.00077769 Ry
     temperature           =    81.85816654 K 
     Ekin + Etot (const)   =   -15.54395355 Ry

     Linear momentum :    0.0000000000    0.0000000000    0.0000000000

     Writing output data file pwscf.save

     second order wave-functions extrapolation
     NEW-OLD atomic charge density approx. for the potential

     total cpu time spent up to now is        0.6 secs

     per-process dynamical memory:     2.6 Mb

     Self-consistent Calculation

     iteration #  1     ecut=     8.00 Ry     beta=0.70
     Davidson diagonalization with overlap
     ethr =  1.00E-06,  avg # of iterations =  2.0

     Threshold (ethr) on eigenvalues was too large:
     Diagonalizing with lowered threshold

     Davidson diagonalization with overlap
     ethr =  5.07E-09,  avg # of iterations =  1.0

     total cpu time spent up to now is        0.6 secs

     total energy              =     -15.54479070 Ry
     Harris-Foulkes estimate   =     -15.54479062 Ry
     estimated scf accuracy    <       0.00000041 Ry

     iteration #  2     ecut=     8.00 Ry     beta=0.70
     Davidson diagonalization with overlap
     ethr =  5.11E-09,  avg # of iterations =  1.0

     total cpu time spent up to now is        0.6 secs

     total energy              =     -15.54479072 Ry
     Harris-Foulkes estimate   =     -15.54479070 Ry
     estimated scf accuracy    <       0.00000003 Ry

     iteration #  3     ecut=     8.00 Ry     beta=0.70
     Davidson diagonalization with overlap
     ethr =  3.96E-10,  avg # of iterations =  1.0

     total cpu time spent up to now is        0.6 secs

     End of self-consistent calculation

          k = 0.0000 0.0000 0.0000 (   113 PWs)   bands (ev):

    -5.2213   6.6461   6.7382   6.7382

          k = 1.0000 0.0000 0.0000 (   108 PWs)   bands (ev):

    -1.0416  -1.0045   3.5921   3.6122

          k = 0.0000 1.0000 0.0000 (   108 PWs)   bands (ev):

    -1.0416  -1.0045   3.5921   3.6122

          k = 0.0000 0.0000 1.0000 (   108 PWs)   bands (ev):

    -1.0416  -1.0045   3.5921   3.6122

     highest occupied level (ev):     6.7382

!    total energy              =     -15.54479072 Ry
     Harris-Foulkes estimate   =     -15.54479072 Ry
     estimated scf accuracy    <          9.3E-11 Ry

     convergence has been achieved in   3 iterations

     Forces acting on atoms (Ry/au):

     atom    1 type  1   force =    -0.00407108   -0.00407108   -0.00407092
     atom    2 type  1   force =     0.00407108    0.00407108    0.00407092

     Total force =     0.009972     Total SCF correction =     0.000001

     Entering Dynamics:    iteration =    13
                           time      =   0.0126 pico-seconds


ATOMIC_POSITIONS (alat)
Si      -0.124651451  -0.124651452  -0.124651474
Si       0.124651451   0.124651452   0.124651474


     kinetic energy (Ekin) =     0.00083700 Ry
     temperature           =    88.10146168 K 
     Ekin + Etot (const)   =   -15.54395371 Ry

     Linear momentum :    0.0000000000    0.0000000000    0.0000000000

     Writing output data file pwscf.save

     second order wave-functions extrapolation
     NEW-OLD atomic charge density approx. for the potential

     total cpu time spent up to now is        0.6 secs

     per-process dynamical memory:     2.6 Mb

     Self-consistent Calculation

     iteration #  1     ecut=     8.00 Ry     beta=0.70
     Davidson diagonalization with overlap
     ethr =  1.00E-06,  avg # of iterations =  2.0

     Threshold (ethr) on eigenvalues was too large:
     Diagonalizing with lowered threshold

     Davidson diagonalization with overlap
     ethr =  5.37E-09,  avg # of iterations =  1.0

     total cpu time spent up to now is        0.7 secs

     total energy              =     -15.54483271 Ry
     Harris-Foulkes estimate   =     -15.54483262 Ry
     estimated scf accuracy    <       0.00000043 Ry

     iteration #  2     ecut=     8.00 Ry     beta=0.70
     Davidson diagonalization with overlap
     ethr =  5.41E-09,  avg # of iterations =  1.0

     total cpu time spent up to now is        0.7 secs

     total energy              =     -15.54483273 Ry
     Harris-Foulkes estimate   =     -15.54483272 Ry
     estimated scf accuracy    <       0.00000003 Ry

     iteration #  3     ecut=     8.00 Ry     beta=0.70
     Davidson diagonalization with overlap
     ethr =  4.20E-10,  avg # of iterations =  1.0

     total cpu time spent up to now is        0.7 secs

     End of self-consistent calculation

          k = 0.0000 0.0000 0.0000 (   113 PWs)   bands (ev):

    -5.2212   6.6690   6.7266   6.7266

          k = 1.0000 0.0000 0.0000 (   108 PWs)   bands (ev):

    -1.0345  -1.0114   3.5958   3.6085

          k = 0.0000 1.0000 0.0000 (   108 PWs)   bands (ev):

    -1.0345  -1.0114   3.5958   3.6085

          k = 0.0000 0.0000 1.0000 (   108 PWs)   bands (ev):

    -1.0345  -1.0114   3.5958   3.6085

     highest occupied level (ev):     6.7266

!    total energy              =     -15.54483273 Ry
     Harris-Foulkes estimate   =     -15.54483273 Ry
     estimated scf accuracy    <          9.7E-11 Ry

     convergence has been achieved in   3 iterations

     Forces acting on atoms (Ry/au):

     atom    1 type  1   force =    -0.00253707   -0.00253707   -0.00253691
     atom    2 type  1   force =     0.00253707    0.00253707    0.00253691

     Total force =     0.006214     Total SCF correction =     0.000001

     Entering Dynamics:    iteration =    14
                           time      =   0.0135 pico-seconds


ATOMIC_POSITIONS (alat)
Si      -0.124863574  -0.124863574  -0.124863597
Si       0.124863574   0.124863574   0.124863597


     kinetic energy (Ekin) =     0.00087891 Ry
     temperature           =    92.51217919 K 
     Ekin + Etot (const)   =   -15.54395382 Ry

     Linear momentum :    0.0000000000    0.0000000000    0.0000000000

     Writing output data file pwscf.save

     second order wave-functions extrapolation
     NEW-OLD atomic charge density approx. for the potential

     total cpu time spent up to now is        0.7 secs

     per-process dynamical memory:     2.6 Mb

     Self-consistent Calculation

     iteration #  1     ecut=     8.00 Ry     beta=0.70
     Davidson diagonalization with overlap
     ethr =  1.00E-06,  avg # of iterations =  2.0

     Threshold (ethr) on eigenvalues was too large:
     Diagonalizing with lowered threshold

     Davidson diagonalization with overlap
     ethr =  5.55E-09,  avg # of iterations =  1.0

     total cpu time spent up to now is        0.7 secs

     total energy              =     -15.54485554 Ry
     Harris-Foulkes estimate   =     -15.54485544 Ry
     estimated scf accuracy    <       0.00000045 Ry

     iteration #  2     ecut=     8.00 Ry     beta=0.70
     Davidson diagonalization with overlap
     ethr =  5.59E-09,  avg # of iterations =  1.0

     total cpu time spent up to now is        0.7 secs

     total energy              =     -15.54485555 Ry
     Harris-Foulkes estimate   =     -15.54485554 Ry
     estimated scf accuracy    <       0.00000003 Ry

     iteration #  3     ecut=     8.00 Ry     beta=0.70
     Davidson diagonalization with overlap
     ethr =  4.36E-10,  avg # of iterations =  1.0

     total cpu time spent up to now is        0.7 secs

     End of self-consistent calculation

          k = 0.0000 0.0000 0.0000 (   113 PWs)   bands (ev):

    -5.2212   6.6924   6.7149   6.7149

          k = 1.0000 0.0000 0.0000 (   108 PWs)   bands (ev):

    -1.0274  -1.0184   3.5996   3.6046

          k = 0.0000 1.0000 0.0000 (   108 PWs)   bands (ev):

    -1.0274  -1.0184   3.5996   3.6046

          k = 0.0000 0.0000 1.0000 (   108 PWs)   bands (ev):

    -1.0274  -1.0184   3.5996   3.6046

     highest occupied level (ev):     6.7149

!    total energy              =     -15.54485555 Ry
     Harris-Foulkes estimate   =     -15.54485555 Ry
     estimated scf accuracy    <          9.9E-11 Ry

     convergence has been achieved in   3 iterations

     Forces acting on atoms (Ry/au):

     atom    1 type  1   force =    -0.00098837   -0.00098837   -0.00098820
     atom    2 type  1   force =     0.00098837    0.00098837    0.00098820

     Total force =     0.002421     Total SCF correction =     0.000001

     Entering Dynamics:    iteration =    15
                           time      =   0.0145 pico-seconds


ATOMIC_POSITIONS (alat)
Si      -0.125077214  -0.125077214  -0.125077238
Si       0.125077214   0.125077214   0.125077238


     kinetic energy (Ekin) =     0.00090168 Ry
     temperature           =    94.90932227 K 
     Ekin + Etot (const)   =   -15.54395387 Ry

     Linear momentum :    0.0000000000    0.0000000000    0.0000000000

     Writing output data file pwscf.save

     second order wave-functions extrapolation
     NEW-OLD atomic charge density approx. for the potential

     total cpu time spent up to now is        0.7 secs

     per-process dynamical memory:     2.6 Mb

     Self-consistent Calculation

     iteration #  1     ecut=     8.00 Ry     beta=0.70
     Davidson diagonalization with overlap
     ethr =  1.00E-06,  avg # of iterations =  2.0

     Threshold (ethr) on eigenvalues was too large:
     Diagonalizing with lowered threshold

     Davidson diagonalization with overlap
     ethr =  5.63E-09,  avg # of iterations =  1.0

     total cpu time spent up to now is        0.8 secs

     total energy              =     -15.54485834 Ry
     Harris-Foulkes estimate   =     -15.54485824 Ry
     estimated scf accuracy    <       0.00000045 Ry

     iteration #  2     ecut=     8.00 Ry     beta=0.70
     Davidson diagonalization with overlap
     ethr =  5.66E-09,  avg # of iterations =  1.0

     total cpu time spent up to now is        0.8 secs

     total energy              =     -15.54485835 Ry
     Harris-Foulkes estimate   =     -15.54485834 Ry
     estimated scf accuracy    <       0.00000004 Ry

     iteration #  3     ecut=     8.00 Ry     beta=0.70
     Davidson diagonalization with overlap
     ethr =  4.41E-10,  avg # of iterations =  1.0

     total cpu time spent up to now is        0.8 secs

     End of self-consistent calculation

          k = 0.0000 0.0000 0.0000 (   113 PWs)   bands (ev):

    -5.2212   6.7031   6.7032   6.7159

          k = 1.0000 0.0000 0.0000 (   108 PWs)   bands (ev):

    -1.0254  -1.0203   3.6007   3.6035

          k = 0.0000 1.0000 0.0000 (   108 PWs)   bands (ev):

    -1.0254  -1.0203   3.6007   3.6035

          k = 0.0000 0.0000 1.0000 (   108 PWs)   bands (ev):

    -1.0254  -1.0203   3.6007   3.6035

     highest occupied level (ev):     6.7159

!    total energy              =     -15.54485835 Ry
     Harris-Foulkes estimate   =     -15.54485835 Ry
     estimated scf accuracy    <          1.0E-10 Ry

     convergence has been achieved in   3 iterations

     Forces acting on atoms (Ry/au):

     atom    1 type  1   force =     0.00055724    0.00055724    0.00055741
     atom    2 type  1   force =    -0.00055724   -0.00055724   -0.00055741

     Total force =     0.001365     Total SCF correction =     0.000001

     Entering Dynamics:    iteration =    16
                           time      =   0.0155 pico-seconds


ATOMIC_POSITIONS (alat)
Si      -0.125289999  -0.125289999  -0.125290022
Si       0.125289999   0.125289999   0.125290022


     kinetic energy (Ekin) =     0.00090449 Ry
     temperature           =    95.20450576 K 
     Ekin + Etot (const)   =   -15.54395387 Ry

     Linear momentum :    0.0000000000    0.0000000000    0.0000000000

     Writing output data file pwscf.save

     second order wave-functions extrapolation
     NEW-OLD atomic charge density approx. for the potential

     total cpu time spent up to now is        0.8 secs

     per-process dynamical memory:     2.6 Mb

     Self-consistent Calculation

     iteration #  1     ecut=     8.00 Ry     beta=0.70
     Davidson diagonalization with overlap
     ethr =  1.00E-06,  avg # of iterations =  2.0

     Threshold (ethr) on eigenvalues was too large:
     Diagonalizing with lowered threshold

     Davidson diagonalization with overlap
     ethr =  5.55E-09,  avg # of iterations =  1.0

     total cpu time spent up to now is        0.8 secs

     total energy              =     -15.54484117 Ry
     Harris-Foulkes estimate   =     -15.54484107 Ry
     estimated scf accuracy    <       0.00000045 Ry

     iteration #  2     ecut=     8.00 Ry     beta=0.70
     Davidson diagonalization with overlap
     ethr =  5.59E-09,  avg # of iterations =  1.0

     total cpu time spent up to now is        0.8 secs

     total energy              =     -15.54484119 Ry
     Harris-Foulkes estimate   =     -15.54484118 Ry
     estimated scf accuracy    <       0.00000004 Ry

     iteration #  3     ecut=     8.00 Ry     beta=0.70
     Davidson diagonalization with overlap
     ethr =  4.38E-10,  avg # of iterations =  1.0

     total cpu time spent up to now is        0.8 secs

     End of self-consistent calculation

          k = 0.0000 0.0000 0.0000 (   113 PWs)   bands (ev):

    -5.2212   6.6914   6.6914   6.7394

          k = 1.0000 0.0000 0.0000 (   108 PWs)   bands (ev):

    -1.0324  -1.0134   3.5967   3.6075

          k = 0.0000 1.0000 0.0000 (   108 PWs)   bands (ev):

    -1.0324  -1.0134   3.5967   3.6075

          k = 0.0000 0.0000 1.0000 (   108 PWs)   bands (ev):

    -1.0324  -1.0134   3.5967   3.6075

     highest occupied level (ev):     6.7394

!    total energy              =     -15.54484119 Ry
     Harris-Foulkes estimate   =     -15.54484119 Ry
     estimated scf accuracy    <          9.7E-11 Ry

     convergence has been achieved in   3 iterations

     Forces acting on atoms (Ry/au):

     atom    1 type  1   force =     0.00208257    0.00208256    0.00208274
     atom    2 type  1   force =    -0.00208257   -0.00208256   -0.00208274

     Total force =     0.005101     Total SCF correction =     0.000001

     Entering Dynamics:    iteration =    17
                           time      =   0.0164 pico-seconds


ATOMIC_POSITIONS (alat)
Si      -0.125499587  -0.125499587  -0.125499610
Si       0.125499587   0.125499587   0.125499610


     kinetic energy (Ekin) =     0.00088738 Ry
     temperature           =    93.40372913 K 
     Ekin + Etot (const)   =   -15.54395381 Ry

     Linear momentum :    0.0000000000    0.0000000000    0.0000000000

     Writing output data file pwscf.save

     second order wave-functions extrapolation
     NEW-OLD atomic charge density approx. for the potential

     total cpu time spent up to now is        0.8 secs

     per-process dynamical memory:     2.6 Mb

     Self-consistent Calculation

     iteration #  1     ecut=     8.00 Ry     beta=0.70
     Davidson diagonalization with overlap
     ethr =  1.00E-06,  avg # of iterations =  2.0

     Threshold (ethr) on eigenvalues was too large:
     Diagonalizing with lowered threshold

     Davidson diagonalization with overlap
     ethr =  5.36E-09,  avg # of iterations =  1.0

     total cpu time spent up to now is        0.8 secs

     total energy              =     -15.54480497 Ry
     Harris-Foulkes estimate   =     -15.54480488 Ry
     estimated scf accuracy    <       0.00000043 Ry

     iteration #  2     ecut=     8.00 Ry     beta=0.70
     Davidson diagonalization with overlap
     ethr =  5.40E-09,  avg # of iterations =  1.0

     total cpu time spent up to now is        0.9 secs

     total energy              =     -15.54480499 Ry
     Harris-Foulkes estimate   =     -15.54480498 Ry
     estimated scf accuracy    <       0.00000003 Ry

     iteration #  3     ecut=     8.00 Ry     beta=0.70
     Davidson diagonalization with overlap
     ethr =  4.24E-10,  avg # of iterations =  1.0

     total cpu time spent up to now is        0.9 secs

     End of self-consistent calculation

          k = 0.0000 0.0000 0.0000 (   113 PWs)   bands (ev):

    -5.2213   6.6799   6.6799   6.7625

          k = 1.0000 0.0000 0.0000 (   108 PWs)   bands (ev):

    -1.0392  -1.0068   3.5928   3.6115

          k = 0.0000 1.0000 0.0000 (   108 PWs)   bands (ev):

    -1.0392  -1.0068   3.5928   3.6115

          k = 0.0000 0.0000 1.0000 (   108 PWs)   bands (ev):

    -1.0392  -1.0068   3.5928   3.6115

     highest occupied level (ev):     6.7625

!    total energy              =     -15.54480499 Ry
     Harris-Foulkes estimate   =     -15.54480499 Ry
     estimated scf accuracy    <          9.2E-11 Ry

     convergence has been achieved in   3 iterations

     Forces acting on atoms (Ry/au):

     atom    1 type  1   force =     0.00357139    0.00357139    0.00357156
     atom    2 type  1   force =    -0.00357139   -0.00357139   -0.00357156

     Total force =     0.008748     Total SCF correction =     0.000000

     Entering Dynamics:    iteration =    18
                           time      =   0.0174 pico-seconds


ATOMIC_POSITIONS (alat)
Si      -0.125703693  -0.125703693  -0.125703716
Si       0.125703693   0.125703693   0.125703716


     kinetic energy (Ekin) =     0.00085129 Ry
     temperature           =    89.60474705 K 
     Ekin + Etot (const)   =   -15.54395370 Ry

     Linear momentum :    0.0000000000    0.0000000000    0.0000000000

     Writing output data file pwscf.save

     second order wave-functions extrapolation
     NEW-OLD atomic charge density approx. for the potential

     total cpu time spent up to now is        0.9 secs

     per-process dynamical memory:     2.6 Mb

     Self-consistent Calculation

     iteration #  1     ecut=     8.00 Ry     beta=0.70
     Davidson diagonalization with overlap
     ethr =  1.00E-06,  avg # of iterations =  2.0

     Threshold (ethr) on eigenvalues was too large:
     Diagonalizing with lowered threshold

     Davidson diagonalization with overlap
     ethr =  5.05E-09,  avg # of iterations =  1.0

     total cpu time spent up to now is        0.9 secs

     total energy              =     -15.54475148 Ry
     Harris-Foulkes estimate   =     -15.54475139 Ry
     estimated scf accuracy    <       0.00000041 Ry

     iteration #  2     ecut=     8.00 Ry     beta=0.70
     Davidson diagonalization with overlap
     ethr =  5.10E-09,  avg # of iterations =  1.0

     total cpu time spent up to now is        0.9 secs

     total energy              =     -15.54475150 Ry
     Harris-Foulkes estimate   =     -15.54475149 Ry
     estimated scf accuracy    <       0.00000003 Ry

     iteration #  3     ecut=     8.00 Ry     beta=0.70
     Davidson diagonalization with overlap
     ethr =  4.02E-10,  avg # of iterations =  1.0

     total cpu time spent up to now is        0.9 secs

     End of self-consistent calculation

          k = 0.0000 0.0000 0.0000 (   113 PWs)   bands (ev):

    -5.2214   6.6688   6.6688   6.7851

          k = 1.0000 0.0000 0.0000 (   108 PWs)   bands (ev):

    -1.0459  -1.0004   3.5890   3.6154

          k = 0.0000 1.0000 0.0000 (   108 PWs)   bands (ev):

    -1.0459  -1.0004   3.5890   3.6154

          k = 0.0000 0.0000 1.0000 (   108 PWs)   bands (ev):

    -1.0459  -1.0004   3.5890   3.6154

     highest occupied level (ev):     6.7851

!    total energy              =     -15.54475150 Ry
     Harris-Foulkes estimate   =     -15.54475150 Ry
     estimated scf accuracy    <          8.7E-11 Ry

     convergence has been achieved in   3 iterations

     Forces acting on atoms (Ry/au):

     atom    1 type  1   force =     0.00500841    0.00500841    0.00500858
     atom    2 type  1   force =    -0.00500841   -0.00500841   -0.00500858

     Total force =     0.012268     Total SCF correction =     0.000000

     Entering Dynamics:    iteration =    19
                           time      =   0.0184 pico-seconds


ATOMIC_POSITIONS (alat)
Si      -0.125900112  -0.125900111  -0.125900134
Si       0.125900112   0.125900111   0.125900134


     kinetic energy (Ekin) =     0.00079795 Ry
     temperature           =    83.99053573 K 
     Ekin + Etot (const)   =   -15.54395355 Ry

     Linear momentum :    0.0000000000    0.0000000000    0.0000000000

     Writing output data file pwscf.save

     second order wave-functions extrapolation
     NEW-OLD atomic charge density approx. for the potential

     total cpu time spent up to now is        0.9 secs

     per-process dynamical memory:     2.6 Mb

     Self-consistent Calculation

     iteration #  1     ecut=     8.00 Ry     beta=0.70
     Davidson diagonalization with overlap
     ethr =  1.00E-06,  avg # of iterations =  2.0

     Threshold (ethr) on eigenvalues was too large:
     Diagonalizing with lowered threshold

     Davidson diagonalization with overlap
     ethr =  4.66E-09,  avg # of iterations =  1.0

     total cpu time spent up to now is        0.9 secs

     total energy              =     -15.54468317 Ry
     Harris-Foulkes estimate   =     -15.54468308 Ry
     estimated scf accuracy    <       0.00000038 Ry

     iteration #  2     ecut=     8.00 Ry     beta=0.70
     Davidson diagonalization with overlap
     ethr =  4.71E-09,  avg # of iterations =  1.0

     total cpu time spent up to now is        0.9 secs

     total energy              =     -15.54468318 Ry
     Harris-Foulkes estimate   =     -15.54468317 Ry
     estimated scf accuracy    <       0.00000003 Ry

     iteration #  3     ecut=     8.00 Ry     beta=0.70
     Davidson diagonalization with overlap
     ethr =  3.72E-10,  avg # of iterations =  1.0

     total cpu time spent up to now is        1.0 secs

     End of self-consistent calculation

          k = 0.0000 0.0000 0.0000 (   113 PWs)   bands (ev):

    -5.2216   6.6580   6.6580   6.8069

          k = 1.0000 0.0000 0.0000 (   108 PWs)   bands (ev):

    -1.0523  -0.9944   3.5853   3.6192

          k = 0.0000 1.0000 0.0000 (   108 PWs)   bands (ev):

    -1.0523  -0.9944   3.5853   3.6192

          k = 0.0000 0.0000 1.0000 (   108 PWs)   bands (ev):

    -1.0523  -0.9944   3.5853   3.6192

     highest occupied level (ev):     6.8069

!    total energy              =     -15.54468318 Ry
     Harris-Foulkes estimate   =     -15.54468318 Ry
     estimated scf accuracy    <          8.0E-11 Ry

     convergence has been achieved in   3 iterations

     Forces acting on atoms (Ry/au):

     atom    1 type  1   force =     0.00637939    0.00637939    0.00637955
     atom    2 type  1   force =    -0.00637939   -0.00637939   -0.00637955

     Total force =     0.015626     Total SCF correction =     0.000000

     Entering Dynamics:    iteration =    20
                           time      =   0.0194 pico-seconds


ATOMIC_POSITIONS (alat)
Si      -0.126086738  -0.126086738  -0.126086759
Si       0.126086738   0.126086738   0.126086759


     kinetic energy (Ekin) =     0.00072982 Ry
     temperature           =    76.81943364 K 
     Ekin + Etot (const)   =   -15.54395336 Ry

     Linear momentum :    0.0000000000    0.0000000000    0.0000000000

     Writing output data file pwscf.save

     second order wave-functions extrapolation
     NEW-OLD atomic charge density approx. for the potential

     total cpu time spent up to now is        1.0 secs

     per-process dynamical memory:     2.6 Mb

     Self-consistent Calculation

     iteration #  1     ecut=     8.00 Ry     beta=0.70
     Davidson diagonalization with overlap
     ethr =  1.00E-06,  avg # of iterations =  2.0

     Threshold (ethr) on eigenvalues was too large:
     Diagonalizing with lowered threshold

     Davidson diagonalization with overlap
     ethr =  4.20E-09,  avg # of iterations =  1.0

     total cpu time spent up to now is        1.0 secs

     total energy              =     -15.54460308 Ry
     Harris-Foulkes estimate   =     -15.54460300 Ry
     estimated scf accuracy    <       0.00000034 Ry

     iteration #  2     ecut=     8.00 Ry     beta=0.70
     Davidson diagonalization with overlap
     ethr =  4.24E-09,  avg # of iterations =  1.0

     total cpu time spent up to now is        1.0 secs

     total energy              =     -15.54460309 Ry
     Harris-Foulkes estimate   =     -15.54460308 Ry
     estimated scf accuracy    <       0.00000003 Ry

     iteration #  3     ecut=     8.00 Ry     beta=0.70
     Davidson diagonalization with overlap
     ethr =  3.35E-10,  avg # of iterations =  1.0

     total cpu time spent up to now is        1.0 secs

     End of self-consistent calculation

          k = 0.0000 0.0000 0.0000 (   113 PWs)   bands (ev):

    -5.2218   6.6478   6.6478   6.8275

          k = 1.0000 0.0000 0.0000 (   108 PWs)   bands (ev):

    -1.0584  -0.9887   3.5818   3.6230

          k = 0.0000 1.0000 0.0000 (   108 PWs)   bands (ev):

    -1.0584  -0.9887   3.5818   3.6230

          k = 0.0000 0.0000 1.0000 (   108 PWs)   bands (ev):

    -1.0584  -0.9887   3.5818   3.6230

     highest occupied level (ev):     6.8275

!    total energy              =     -15.54460309 Ry
     Harris-Foulkes estimate   =     -15.54460309 Ry
     estimated scf accuracy    <          7.2E-11 Ry

     convergence has been achieved in   3 iterations

     Forces acting on atoms (Ry/au):

     atom    1 type  1   force =     0.00767127    0.00767127    0.00767142
     atom    2 type  1   force =    -0.00767127   -0.00767127   -0.00767142

     Total force =     0.018791     Total SCF correction =     0.000000

     Entering Dynamics:    iteration =    21
                           time      =   0.0203 pico-seconds


ATOMIC_POSITIONS (alat)
Si      -0.126261590  -0.126261589  -0.126261609
Si       0.126261590   0.126261589   0.126261609


     kinetic energy (Ekin) =     0.00064995 Ry
     temperature           =    68.41241101 K 
     Ekin + Etot (const)   =   -15.54395314 Ry

     Linear momentum :    0.0000000000    0.0000000000    0.0000000000

     Writing output data file pwscf.save

     second order wave-functions extrapolation
     NEW-OLD atomic charge density approx. for the potential

     total cpu time spent up to now is        1.0 secs

     per-process dynamical memory:     2.6 Mb

     Self-consistent Calculation

     iteration #  1     ecut=     8.00 Ry     beta=0.70
     Davidson diagonalization with overlap
     ethr =  1.00E-06,  avg # of iterations =  1.8

     Threshold (ethr) on eigenvalues was too large:
     Diagonalizing with lowered threshold

     Davidson diagonalization with overlap
     ethr =  3.67E-09,  avg # of iterations =  1.0

     total cpu time spent up to now is        1.0 secs

     total energy              =     -15.54451473 Ry
     Harris-Foulkes estimate   =     -15.54451466 Ry
     estimated scf accuracy    <       0.00000030 Ry

     iteration #  2     ecut=     8.00 Ry     beta=0.70
     Davidson diagonalization with overlap
     ethr =  3.71E-09,  avg # of iterations =  1.0

     total cpu time spent up to now is        1.0 secs

     total energy              =     -15.54451474 Ry
     Harris-Foulkes estimate   =     -15.54451473 Ry
     estimated scf accuracy    <       0.00000002 Ry

     iteration #  3     ecut=     8.00 Ry     beta=0.70
     Davidson diagonalization with overlap
     ethr =  2.93E-10,  avg # of iterations =  1.0

     total cpu time spent up to now is        1.0 secs

     End of self-consistent calculation

          k = 0.0000 0.0000 0.0000 (   113 PWs)   bands (ev):

    -5.2220   6.6383   6.6383   6.8469

          k = 1.0000 0.0000 0.0000 (   108 PWs)   bands (ev):

    -1.0641  -0.9835   3.5784   3.6265

          k = 0.0000 1.0000 0.0000 (   108 PWs)   bands (ev):

    -1.0641  -0.9835   3.5784   3.6265

          k = 0.0000 0.0000 1.0000 (   108 PWs)   bands (ev):

    -1.0641  -0.9835   3.5784   3.6265

     highest occupied level (ev):     6.8469

!    total energy              =     -15.54451474 Ry
     Harris-Foulkes estimate   =     -15.54451474 Ry
     estimated scf accuracy    <          6.2E-11 Ry

     convergence has been achieved in   3 iterations

     Forces acting on atoms (Ry/au):

     atom    1 type  1   force =     0.00887223    0.00887223    0.00887238
     atom    2 type  1   force =    -0.00887223   -0.00887223   -0.00887238

     Total force =     0.021733     Total SCF correction =     0.000000

     Entering Dynamics:    iteration =    22
                           time      =   0.0213 pico-seconds


ATOMIC_POSITIONS (alat)
Si      -0.126422823  -0.126422822  -0.126422841
Si       0.126422823   0.126422822   0.126422841


     kinetic energy (Ekin) =     0.00056184 Ry
     temperature           =    59.13819263 K 
     Ekin + Etot (const)   =   -15.54395290 Ry

     Linear momentum :    0.0000000000    0.0000000000    0.0000000000

     Writing output data file pwscf.save

     second order wave-functions extrapolation
     NEW-OLD atomic charge density approx. for the potential

     total cpu time spent up to now is        1.1 secs

     per-process dynamical memory:     2.6 Mb

     Self-consistent Calculation

     iteration #  1     ecut=     8.00 Ry     beta=0.70
     Davidson diagonalization with overlap
     ethr =  1.00E-06,  avg # of iterations =  1.8

     Threshold (ethr) on eigenvalues was too large:
     Diagonalizing with lowered threshold

     Davidson diagonalization with overlap
     ethr =  3.10E-09,  avg # of iterations =  1.0

     total cpu time spent up to now is        1.1 secs

     total energy              =     -15.54442194 Ry
     Harris-Foulkes estimate   =     -15.54442188 Ry
     estimated scf accuracy    <       0.00000025 Ry

     iteration #  2     ecut=     8.00 Ry     beta=0.70
     Davidson diagonalization with overlap
     ethr =  3.14E-09,  avg # of iterations =  1.0

     total cpu time spent up to now is        1.1 secs

     total energy              =     -15.54442195 Ry
     Harris-Foulkes estimate   =     -15.54442194 Ry
     estimated scf accuracy    <       0.00000002 Ry

     iteration #  3     ecut=     8.00 Ry     beta=0.70
     Davidson diagonalization with overlap
     ethr =  2.50E-10,  avg # of iterations =  1.0

     total cpu time spent up to now is        1.1 secs

     End of self-consistent calculation

          k = 0.0000 0.0000 0.0000 (   113 PWs)   bands (ev):

    -5.2222   6.6296   6.6296   6.8649

          k = 1.0000 0.0000 0.0000 (   108 PWs)   bands (ev):

    -1.0693  -0.9788   3.5754   3.6298

          k = 0.0000 1.0000 0.0000 (   108 PWs)   bands (ev):

    -1.0693  -0.9788   3.5754   3.6298

          k = 0.0000 0.0000 1.0000 (   108 PWs)   bands (ev):

    -1.0693  -0.9788   3.5754   3.6298

     highest occupied level (ev):     6.8649

!    total energy              =     -15.54442195 Ry
     Harris-Foulkes estimate   =     -15.54442195 Ry
     estimated scf accuracy    <          4.8E-11 Ry

     convergence has been achieved in   3 iterations

     Forces acting on atoms (Ry/au):

     atom    1 type  1   force =     0.00997158    0.00997158    0.00997172
     atom    2 type  1   force =    -0.00997158   -0.00997158   -0.00997172

     Total force =     0.024425     Total SCF correction =     0.000001

     Entering Dynamics:    iteration =    23
                           time      =   0.0223 pico-seconds


ATOMIC_POSITIONS (alat)
Si      -0.126568750  -0.126568750  -0.126568767
Si       0.126568750   0.126568750   0.126568767


     kinetic energy (Ekin) =     0.00046929 Ry
     temperature           =    49.39701865 K 
     Ekin + Etot (const)   =   -15.54395266 Ry

     Linear momentum :    0.0000000000    0.0000000000    0.0000000000

     Writing output data file pwscf.save

     second order wave-functions extrapolation
     NEW-OLD atomic charge density approx. for the potential

     total cpu time spent up to now is        1.1 secs

     per-process dynamical memory:     2.6 Mb

     Self-consistent Calculation

     iteration #  1     ecut=     8.00 Ry     beta=0.70
     Davidson diagonalization with overlap
     ethr =  1.00E-06,  avg # of iterations =  1.8

     Threshold (ethr) on eigenvalues was too large:
     Diagonalizing with lowered threshold

     Davidson diagonalization with overlap
     ethr =  2.53E-09,  avg # of iterations =  1.0

     total cpu time spent up to now is        1.1 secs

     total energy              =     -15.54432866 Ry
     Harris-Foulkes estimate   =     -15.54432861 Ry
     estimated scf accuracy    <       0.00000021 Ry

     iteration #  2     ecut=     8.00 Ry     beta=0.70
     Davidson diagonalization with overlap
     ethr =  2.56E-09,  avg # of iterations =  1.0

     total cpu time spent up to now is        1.1 secs

     total energy              =     -15.54432867 Ry
     Harris-Foulkes estimate   =     -15.54432866 Ry
     estimated scf accuracy    <       0.00000002 Ry

     iteration #  3     ecut=     8.00 Ry     beta=0.70
     Davidson diagonalization with overlap
     ethr =  2.04E-10,  avg # of iterations =  1.0

     total cpu time spent up to now is        1.1 secs

     End of self-consistent calculation

          k = 0.0000 0.0000 0.0000 (   113 PWs)   bands (ev):

    -5.2225   6.6216   6.6216   6.8811

          k = 1.0000 0.0000 0.0000 (   108 PWs)   bands (ev):

    -1.0740  -0.9746   3.5726   3.6328

          k = 0.0000 1.0000 0.0000 (   108 PWs)   bands (ev):

    -1.0740  -0.9746   3.5726   3.6328

          k = 0.0000 0.0000 1.0000 (   108 PWs)   bands (ev):

    -1.0740  -0.9746   3.5726   3.6328

     highest occupied level (ev):     6.8811

!    total energy              =     -15.54432867 Ry
     Harris-Foulkes estimate   =     -15.54432867 Ry
     estimated scf accuracy    <          3.8E-11 Ry

     convergence has been achieved in   3 iterations

     Forces acting on atoms (Ry/au):

     atom    1 type  1   force =     0.01096001    0.01096001    0.01096014
     atom    2 type  1   force =    -0.01096001   -0.01096001   -0.01096014

     Total force =     0.026847     Total SCF correction =     0.000001

     Entering Dynamics:    iteration =    24
                           time      =   0.0232 pico-seconds


ATOMIC_POSITIONS (alat)
Si      -0.126697855  -0.126697854  -0.126697869
Si       0.126697855   0.126697854   0.126697869


     kinetic energy (Ekin) =     0.00037625 Ry
     temperature           =    39.60360895 K 
     Ekin + Etot (const)   =   -15.54395241 Ry

     Linear momentum :    0.0000000000    0.0000000000    0.0000000000

     Writing output data file pwscf.save

     second order wave-functions extrapolation
     NEW-OLD atomic charge density approx. for the potential

     total cpu time spent up to now is        1.2 secs

     per-process dynamical memory:     2.6 Mb

     Self-consistent Calculation

     iteration #  1     ecut=     8.00 Ry     beta=0.70
     Davidson diagonalization with overlap
     ethr =  1.00E-06,  avg # of iterations =  1.8

     Threshold (ethr) on eigenvalues was too large:
     Diagonalizing with lowered threshold

     Davidson diagonalization with overlap
     ethr =  1.98E-09,  avg # of iterations =  1.0

     total cpu time spent up to now is        1.2 secs

     total energy              =     -15.54423881 Ry
     Harris-Foulkes estimate   =     -15.54423877 Ry
     estimated scf accuracy    <       0.00000016 Ry

     iteration #  2     ecut=     8.00 Ry     beta=0.70
     Davidson diagonalization with overlap
     ethr =  2.00E-09,  avg # of iterations =  1.0

     total cpu time spent up to now is        1.2 secs

     total energy              =     -15.54423881 Ry
     Harris-Foulkes estimate   =     -15.54423881 Ry
     estimated scf accuracy    <       0.00000001 Ry

     iteration #  3     ecut=     8.00 Ry     beta=0.70
     Davidson diagonalization with overlap
     ethr =  1.60E-10,  avg # of iterations =  1.0

     total cpu time spent up to now is        1.2 secs

     End of self-consistent calculation

          k = 0.0000 0.0000 0.0000 (   113 PWs)   bands (ev):

    -5.2227   6.6146   6.6146   6.8954

          k = 1.0000 0.0000 0.0000 (   108 PWs)   bands (ev):

    -1.0782  -0.9709   3.5701   3.6354

          k = 0.0000 1.0000 0.0000 (   108 PWs)   bands (ev):

    -1.0782  -0.9709   3.5701   3.6354

          k = 0.0000 0.0000 1.0000 (   108 PWs)   bands (ev):

    -1.0782  -0.9709   3.5701   3.6354

     highest occupied level (ev):     6.8954

!    total energy              =     -15.54423881 Ry
     Harris-Foulkes estimate   =     -15.54423881 Ry
     estimated scf accuracy    <          2.9E-11 Ry

     convergence has been achieved in   3 iterations

     Forces acting on atoms (Ry/au):

     atom    1 type  1   force =     0.01182918    0.01182918    0.01182929
     atom    2 type  1   force =    -0.01182918   -0.01182918   -0.01182929

     Total force =     0.028976     Total SCF correction =     0.000001

     Entering Dynamics:    iteration =    25
                           time      =   0.0242 pico-seconds


ATOMIC_POSITIONS (alat)
Si      -0.126808802  -0.126808801  -0.126808815
Si       0.126808802   0.126808801   0.126808815


     kinetic energy (Ekin) =     0.00028663 Ry
     temperature           =    30.17015159 K 
     Ekin + Etot (const)   =   -15.54395218 Ry

     Linear momentum :    0.0000000000    0.0000000000    0.0000000000

     Writing output data file pwscf.save

     second order wave-functions extrapolation
     NEW-OLD atomic charge density approx. for the potential

     total cpu time spent up to now is        1.2 secs

     per-process dynamical memory:     2.6 Mb

     Self-consistent Calculation

     iteration #  1     ecut=     8.00 Ry     beta=0.70
     Davidson diagonalization with overlap
     ethr =  1.00E-06,  avg # of iterations =  1.0

     Threshold (ethr) on eigenvalues was too large:
     Diagonalizing with lowered threshold

     Davidson diagonalization with overlap
     ethr =  1.44E-09,  avg # of iterations =  1.0

     total cpu time spent up to now is        1.2 secs

     total energy              =     -15.54415613 Ry
     Harris-Foulkes estimate   =     -15.54415610 Ry
     estimated scf accuracy    <       0.00000012 Ry

     iteration #  2     ecut=     8.00 Ry     beta=0.70
     Davidson diagonalization with overlap
     ethr =  1.47E-09,  avg # of iterations =  1.0

     total cpu time spent up to now is        1.2 secs

     End of self-consistent calculation

          k = 0.0000 0.0000 0.0000 (   113 PWs)   bands (ev):

    -5.2229   6.6086   6.6086   6.9078

          k = 1.0000 0.0000 0.0000 (   108 PWs)   bands (ev):

    -1.0818  -0.9677   3.5679   3.6378

          k = 0.0000 1.0000 0.0000 (   108 PWs)   bands (ev):

    -1.0818  -0.9677   3.5679   3.6378

          k = 0.0000 0.0000 1.0000 (   108 PWs)   bands (ev):

    -1.0818  -0.9677   3.5679   3.6378

     highest occupied level (ev):     6.9078

!    total energy              =     -15.54415613 Ry
     Harris-Foulkes estimate   =     -15.54415613 Ry
     estimated scf accuracy    <          9.5E-09 Ry

     convergence has been achieved in   2 iterations

     Forces acting on atoms (Ry/au):

     atom    1 type  1   force =     0.01257521    0.01257521    0.01257531
     atom    2 type  1   force =    -0.01257521   -0.01257521   -0.01257531

     Total force =     0.030803     Total SCF correction =     0.000014

     Entering Dynamics:    iteration =    26
                           time      =   0.0252 pico-seconds


ATOMIC_POSITIONS (alat)
Si      -0.126900447  -0.126900446  -0.126900458
Si       0.126900447   0.126900446   0.126900458


     kinetic energy (Ekin) =     0.00020415 Ry
     temperature           =    21.48882441 K 
     Ekin + Etot (const)   =   -15.54395198 Ry

     Linear momentum :    0.0000000000    0.0000000000    0.0000000000

     Writing output data file pwscf.save

     second order wave-functions extrapolation
     NEW-OLD atomic charge density approx. for the potential

     total cpu time spent up to now is        1.3 secs

     per-process dynamical memory:     2.6 Mb

     Self-consistent Calculation

     iteration #  1     ecut=     8.00 Ry     beta=0.70
     Davidson diagonalization with overlap
     ethr =  1.00E-06,  avg # of iterations =  1.0

     Threshold (ethr) on eigenvalues was too large:
     Diagonalizing with lowered threshold

     Davidson diagonalization with overlap
     ethr =  9.79E-10,  avg # of iterations =  1.0

     total cpu time spent up to now is        1.3 secs

     total energy              =     -15.54408404 Ry
     Harris-Foulkes estimate   =     -15.54408402 Ry
     estimated scf accuracy    <       0.00000008 Ry

     iteration #  2     ecut=     8.00 Ry     beta=0.70
     Davidson diagonalization with overlap
     ethr =  9.82E-10,  avg # of iterations =  1.0

     total cpu time spent up to now is        1.3 secs

     End of self-consistent calculation

          k = 0.0000 0.0000 0.0000 (   113 PWs)   bands (ev):

    -5.2230   6.6037   6.6037   6.9180

          k = 1.0000 0.0000 0.0000 (   108 PWs)   bands (ev):

    -1.0847  -0.9652   3.5661   3.6397

          k = 0.0000 1.0000 0.0000 (   108 PWs)   bands (ev):

    -1.0847  -0.9652   3.5661   3.6397

          k = 0.0000 0.0000 1.0000 (   108 PWs)   bands (ev):

    -1.0847  -0.9652   3.5661   3.6397

     highest occupied level (ev):     6.9180

!    total energy              =     -15.54408405 Ry
     Harris-Foulkes estimate   =     -15.54408404 Ry
     estimated scf accuracy    <          6.2E-09 Ry

     convergence has been achieved in   2 iterations

     Forces acting on atoms (Ry/au):

     atom    1 type  1   force =     0.01318566    0.01318566    0.01318574
     atom    2 type  1   force =    -0.01318566   -0.01318566   -0.01318574

     Total force =     0.032298     Total SCF correction =     0.000011

     Entering Dynamics:    iteration =    27
                           time      =   0.0261 pico-seconds


ATOMIC_POSITIONS (alat)
Si      -0.126971853  -0.126971852  -0.126971861
Si       0.126971853   0.126971852   0.126971861


     kinetic energy (Ekin) =     0.00013224 Ry
     temperature           =    13.91909077 K 
     Ekin + Etot (const)   =   -15.54395181 Ry

     Linear momentum :    0.0000000000    0.0000000000    0.0000000000

     Writing output data file pwscf.save
[...]

     End of self-consistent calculation

          k = 0.0000 0.0000 0.0000 (   113 PWs)   bands (ev):

    -5.2231   6.6024   6.6024   6.9207

          k = 1.0000 0.0000 0.0000 (   108 PWs)   bands (ev):

    -1.0855  -0.9645   3.5657   3.6402

          k = 0.0000 1.0000 0.0000 (   108 PWs)   bands (ev):

    -1.0855  -0.9645   3.5657   3.6402

          k = 0.0000 0.0000 1.0000 (   108 PWs)   bands (ev):

    -1.0855  -0.9645   3.5657   3.6402

     highest occupied level (ev):     6.9207

!    total energy              =     -15.54406418 Ry
     Harris-Foulkes estimate   =     -15.54406418 Ry
     estimated scf accuracy    <          3.2E-09 Ry

     convergence has been achieved in   2 iterations

     Forces acting on atoms (Ry/au):

     atom    1 type  1   force =     0.01334456    0.01334456    0.01334451
     atom    2 type  1   force =    -0.01334456   -0.01334456   -0.01334451

     Total force =     0.032687     Total SCF correction =     0.000008

     Entering Dynamics:    iteration =    94
                           time      =   0.0910 pico-seconds


ATOMIC_POSITIONS (alat)
Si      -0.126839668  -0.126839668  -0.126839659
Si       0.126839668   0.126839668   0.126839659


     kinetic energy (Ekin) =     0.00011212 Ry
     temperature           =    11.80199276 K 
     Ekin + Etot (const)   =   -15.54395205 Ry

     Linear momentum :    0.0000000000    0.0000000000    0.0000000000

     Writing output data file pwscf.save

     second order wave-functions extrapolation
     NEW-OLD atomic charge density approx. for the potential

     total cpu time spent up to now is        4.3 secs

     per-process dynamical memory:     2.6 Mb

     Self-consistent Calculation

     iteration #  1     ecut=     8.00 Ry     beta=0.70
     Davidson diagonalization with overlap
     ethr =  1.00E-06,  avg # of iterations =  1.0

     Threshold (ethr) on eigenvalues was too large:
     Diagonalizing with lowered threshold

     Davidson diagonalization with overlap
     ethr =  8.45E-10,  avg # of iterations =  1.0

     total cpu time spent up to now is        4.3 secs

     total energy              =     -15.54413224 Ry
     Harris-Foulkes estimate   =     -15.54413222 Ry
     estimated scf accuracy    <       0.00000007 Ry

     iteration #  2     ecut=     8.00 Ry     beta=0.70
     Davidson diagonalization with overlap
     ethr =  8.59E-10,  avg # of iterations =  1.0

     total cpu time spent up to now is        4.3 secs

     End of self-consistent calculation

          k = 0.0000 0.0000 0.0000 (   113 PWs)   bands (ev):

    -5.2229   6.6070   6.6070   6.9112

          k = 1.0000 0.0000 0.0000 (   108 PWs)   bands (ev):

    -1.0828  -0.9669   3.5673   3.6384

          k = 0.0000 1.0000 0.0000 (   108 PWs)   bands (ev):

    -1.0828  -0.9669   3.5673   3.6384

          k = 0.0000 0.0000 1.0000 (   108 PWs)   bands (ev):

    -1.0828  -0.9669   3.5673   3.6384

     highest occupied level (ev):     6.9112

!    total energy              =     -15.54413224 Ry
     Harris-Foulkes estimate   =     -15.54413224 Ry
     estimated scf accuracy    <          5.5E-09 Ry

     convergence has been achieved in   2 iterations

     Forces acting on atoms (Ry/au):

     atom    1 type  1   force =     0.01277586    0.01277586    0.01277579
     atom    2 type  1   force =    -0.01277586   -0.01277586   -0.01277579

     Total force =     0.031294     Total SCF correction =     0.000010

     Entering Dynamics:    iteration =    95
                           time      =   0.0919 pico-seconds


ATOMIC_POSITIONS (alat)
Si      -0.126734748  -0.126734748  -0.126734737
Si       0.126734748   0.126734748   0.126734737


     kinetic energy (Ekin) =     0.00018000 Ry
     temperature           =    18.94688006 K 
     Ekin + Etot (const)   =   -15.54395224 Ry

     Linear momentum :    0.0000000000    0.0000000000    0.0000000000

     Writing output data file pwscf.save

     second order wave-functions extrapolation
     NEW-OLD atomic charge density approx. for the potential

     total cpu time spent up to now is        4.4 secs

     per-process dynamical memory:     2.6 Mb

     Self-consistent Calculation

     iteration #  1     ecut=     8.00 Ry     beta=0.70
     Davidson diagonalization with overlap
     ethr =  1.00E-06,  avg # of iterations =  1.0

     Threshold (ethr) on eigenvalues was too large:
     Diagonalizing with lowered threshold

     Davidson diagonalization with overlap
     ethr =  1.28E-09,  avg # of iterations =  1.0

     total cpu time spent up to now is        4.4 secs

     total energy              =     -15.54421188 Ry
     Harris-Foulkes estimate   =     -15.54421185 Ry
     estimated scf accuracy    <       0.00000010 Ry

     iteration #  2     ecut=     8.00 Ry     beta=0.70
     Davidson diagonalization with overlap
     ethr =  1.30E-09,  avg # of iterations =  1.0

     total cpu time spent up to now is        4.4 secs

     End of self-consistent calculation

          k = 0.0000 0.0000 0.0000 (   113 PWs)   bands (ev):

    -5.2227   6.6127   6.6127   6.8995

          k = 1.0000 0.0000 0.0000 (   108 PWs)   bands (ev):

    -1.0794  -0.9698   3.5694   3.6362

          k = 0.0000 1.0000 0.0000 (   108 PWs)   bands (ev):

    -1.0794  -0.9698   3.5694   3.6362

          k = 0.0000 0.0000 1.0000 (   108 PWs)   bands (ev):

    -1.0794  -0.9698   3.5694   3.6362

     highest occupied level (ev):     6.8995

!    total energy              =     -15.54421188 Ry
     Harris-Foulkes estimate   =     -15.54421188 Ry
     estimated scf accuracy    <          8.3E-09 Ry

     convergence has been achieved in   2 iterations

     Forces acting on atoms (Ry/au):

     atom    1 type  1   force =     0.01207367    0.01207367    0.01207358
     atom    2 type  1   force =    -0.01207367   -0.01207367   -0.01207358

     Total force =     0.029574     Total SCF correction =     0.000013

     Entering Dynamics:    iteration =    96
                           time      =   0.0929 pico-seconds


ATOMIC_POSITIONS (alat)
Si      -0.126611296  -0.126611295  -0.126611282
Si       0.126611296   0.126611295   0.126611282


     kinetic energy (Ekin) =     0.00025942 Ry
     temperature           =    27.30651276 K 
     Ekin + Etot (const)   =   -15.54395246 Ry

     Linear momentum :    0.0000000000    0.0000000000    0.0000000000

     Writing output data file pwscf.save

     second order wave-functions extrapolation
     NEW-OLD atomic charge density approx. for the potential

     total cpu time spent up to now is        4.4 secs

     per-process dynamical memory:     2.6 Mb

     Self-consistent Calculation

     iteration #  1     ecut=     8.00 Ry     beta=0.70
     Davidson diagonalization with overlap
     ethr =  1.00E-06,  avg # of iterations =  1.8

     Threshold (ethr) on eigenvalues was too large:
     Diagonalizing with lowered threshold

     Davidson diagonalization with overlap
     ethr =  1.78E-09,  avg # of iterations =  1.0

     total cpu time spent up to now is        4.4 secs

     total energy              =     -15.54429981 Ry
     Harris-Foulkes estimate   =     -15.54429978 Ry
     estimated scf accuracy    <       0.00000014 Ry

     iteration #  2     ecut=     8.00 Ry     beta=0.70
     Davidson diagonalization with overlap
     ethr =  1.80E-09,  avg # of iterations =  1.0

     total cpu time spent up to now is        4.4 secs

     total energy              =     -15.54429982 Ry
     Harris-Foulkes estimate   =     -15.54429981 Ry
     estimated scf accuracy    <       0.00000001 Ry

     iteration #  3     ecut=     8.00 Ry     beta=0.70
     Davidson diagonalization with overlap
     ethr =  1.43E-10,  avg # of iterations =  1.0

     total cpu time spent up to now is        4.4 secs

     End of self-consistent calculation

          k = 0.0000 0.0000 0.0000 (   113 PWs)   bands (ev):

    -5.2225   6.6193   6.6193   6.8858

          k = 1.0000 0.0000 0.0000 (   108 PWs)   bands (ev):

    -1.0754  -0.9733   3.5717   3.6336

          k = 0.0000 1.0000 0.0000 (   108 PWs)   bands (ev):

    -1.0754  -0.9733   3.5717   3.6336

          k = 0.0000 0.0000 1.0000 (   108 PWs)   bands (ev):

    -1.0754  -0.9733   3.5717   3.6336

     highest occupied level (ev):     6.8858

!    total energy              =     -15.54429982 Ry
     Harris-Foulkes estimate   =     -15.54429982 Ry
     estimated scf accuracy    <          3.5E-11 Ry

     convergence has been achieved in   3 iterations

     Forces acting on atoms (Ry/au):

     atom    1 type  1   force =     0.01124644    0.01124643    0.01124633
     atom    2 type  1   force =    -0.01124644   -0.01124643   -0.01124633

     Total force =     0.027548     Total SCF correction =     0.000000

     Entering Dynamics:    iteration =    97
                           time      =   0.0939 pico-seconds


ATOMIC_POSITIONS (alat)
Si      -0.126470581  -0.126470580  -0.126470565
Si       0.126470581   0.126470580   0.126470565


     kinetic energy (Ekin) =     0.00034712 Ry
     temperature           =    36.53729398 K 
     Ekin + Etot (const)   =   -15.54395270 Ry

     Linear momentum :    0.0000000000    0.0000000000    0.0000000000

     Writing output data file pwscf.save

     second order wave-functions extrapolation
     NEW-OLD atomic charge density approx. for the potential

     total cpu time spent up to now is        4.5 secs

     per-process dynamical memory:     2.6 Mb

     Self-consistent Calculation

     iteration #  1     ecut=     8.00 Ry     beta=0.70
     Davidson diagonalization with overlap
     ethr =  1.00E-06,  avg # of iterations =  1.8

     Threshold (ethr) on eigenvalues was too large:
     Diagonalizing with lowered threshold

     Davidson diagonalization with overlap
     ethr =  2.33E-09,  avg # of iterations =  1.0

     total cpu time spent up to now is        4.5 secs

     total energy              =     -15.54439239 Ry
     Harris-Foulkes estimate   =     -15.54439235 Ry
     estimated scf accuracy    <       0.00000019 Ry

     iteration #  2     ecut=     8.00 Ry     beta=0.70
     Davidson diagonalization with overlap
     ethr =  2.38E-09,  avg # of iterations =  1.0

     total cpu time spent up to now is        4.5 secs

     total energy              =     -15.54439240 Ry
     Harris-Foulkes estimate   =     -15.54439239 Ry
     estimated scf accuracy    <       0.00000002 Ry

     iteration #  3     ecut=     8.00 Ry     beta=0.70
     Davidson diagonalization with overlap
     ethr =  1.91E-10,  avg # of iterations =  1.0

     total cpu time spent up to now is        4.5 secs

     End of self-consistent calculation

          k = 0.0000 0.0000 0.0000 (   113 PWs)   bands (ev):

    -5.2223   6.6270   6.6270   6.8702

          k = 1.0000 0.0000 0.0000 (   108 PWs)   bands (ev):

    -1.0708  -0.9774   3.5744   3.6307

          k = 0.0000 1.0000 0.0000 (   108 PWs)   bands (ev):

    -1.0708  -0.9774   3.5744   3.6307

          k = 0.0000 0.0000 1.0000 (   108 PWs)   bands (ev):

    -1.0708  -0.9774   3.5744   3.6307

     highest occupied level (ev):     6.8702

!    total energy              =     -15.54439240 Ry
     Harris-Foulkes estimate   =     -15.54439240 Ry
     estimated scf accuracy    <          3.6E-11 Ry

     convergence has been achieved in   3 iterations

     Forces acting on atoms (Ry/au):

     atom    1 type  1   force =     0.01029527    0.01029527    0.01029516
     atom    2 type  1   force =    -0.01029527   -0.01029527   -0.01029516

     Total force =     0.025218     Total SCF correction =     0.000001

     Entering Dynamics:    iteration =    98
                           time      =   0.0948 pico-seconds


ATOMIC_POSITIONS (alat)
Si      -0.126314063  -0.126314063  -0.126314045
Si       0.126314063   0.126314063   0.126314045


     kinetic energy (Ekin) =     0.00043945 Ry
     temperature           =    46.25622412 K 
     Ekin + Etot (const)   =   -15.54395294 Ry

     Linear momentum :    0.0000000000    0.0000000000    0.0000000000

     Writing output data file pwscf.save

     second order wave-functions extrapolation
     NEW-OLD atomic charge density approx. for the potential

     total cpu time spent up to now is        4.5 secs

     per-process dynamical memory:     2.6 Mb

     Self-consistent Calculation

     iteration #  1     ecut=     8.00 Ry     beta=0.70
     Davidson diagonalization with overlap
     ethr =  1.00E-06,  avg # of iterations =  1.8

     Threshold (ethr) on eigenvalues was too large:
     Diagonalizing with lowered threshold

     Davidson diagonalization with overlap
     ethr =  2.91E-09,  avg # of iterations =  1.0

     total cpu time spent up to now is        4.5 secs

     total energy              =     -15.54448573 Ry
     Harris-Foulkes estimate   =     -15.54448567 Ry
     estimated scf accuracy    <       0.00000024 Ry

     iteration #  2     ecut=     8.00 Ry     beta=0.70
     Davidson diagonalization with overlap
     ethr =  2.96E-09,  avg # of iterations =  1.0

     total cpu time spent up to now is        4.5 secs

     total energy              =     -15.54448574 Ry
     Harris-Foulkes estimate   =     -15.54448573 Ry
     estimated scf accuracy    <       0.00000002 Ry

     iteration #  3     ecut=     8.00 Ry     beta=0.70
     Davidson diagonalization with overlap
     ethr =  2.35E-10,  avg # of iterations =  1.0

     total cpu time spent up to now is        4.5 secs

     End of self-consistent calculation

          k = 0.0000 0.0000 0.0000 (   113 PWs)   bands (ev):

    -5.2221   6.6355   6.6355   6.8528

          k = 1.0000 0.0000 0.0000 (   108 PWs)   bands (ev):

    -1.0658  -0.9820   3.5774   3.6275

          k = 0.0000 1.0000 0.0000 (   108 PWs)   bands (ev):

    -1.0658  -0.9820   3.5774   3.6275

          k = 0.0000 0.0000 1.0000 (   108 PWs)   bands (ev):

    -1.0658  -0.9820   3.5774   3.6275

     highest occupied level (ev):     6.8528

!    total energy              =     -15.54448574 Ry
     Harris-Foulkes estimate   =     -15.54448574 Ry
     estimated scf accuracy    <          4.8E-11 Ry

     convergence has been achieved in   3 iterations

     Forces acting on atoms (Ry/au):

     atom    1 type  1   force =     0.00923029    0.00923029    0.00923016
     atom    2 type  1   force =    -0.00923029   -0.00923029   -0.00923016

     Total force =     0.022609     Total SCF correction =     0.000001

     Entering Dynamics:    iteration =    99
                           time      =   0.0958 pico-seconds


ATOMIC_POSITIONS (alat)
Si      -0.126143377  -0.126143377  -0.126143358
Si       0.126143377   0.126143377   0.126143358


     kinetic energy (Ekin) =     0.00053254 Ry
     temperature           =    56.05465567 K 
     Ekin + Etot (const)   =   -15.54395320 Ry

     Linear momentum :    0.0000000000    0.0000000000    0.0000000000

     Writing output data file pwscf.save

     second order wave-functions extrapolation
     NEW-OLD atomic charge density approx. for the potential

     total cpu time spent up to now is        4.6 secs

     per-process dynamical memory:     2.6 Mb

     Self-consistent Calculation

     iteration #  1     ecut=     8.00 Ry     beta=0.70
     Davidson diagonalization with overlap
     ethr =  1.00E-06,  avg # of iterations =  1.8

     Threshold (ethr) on eigenvalues was too large:
     Diagonalizing with lowered threshold

     Davidson diagonalization with overlap
     ethr =  3.50E-09,  avg # of iterations =  1.0

     total cpu time spent up to now is        4.6 secs

     total energy              =     -15.54457587 Ry
     Harris-Foulkes estimate   =     -15.54457581 Ry
     estimated scf accuracy    <       0.00000028 Ry

     iteration #  2     ecut=     8.00 Ry     beta=0.70
     Davidson diagonalization with overlap
     ethr =  3.54E-09,  avg # of iterations =  1.0

     total cpu time spent up to now is        4.6 secs

     total energy              =     -15.54457588 Ry
     Harris-Foulkes estimate   =     -15.54457587 Ry
     estimated scf accuracy    <       0.00000002 Ry

     iteration #  3     ecut=     8.00 Ry     beta=0.70
     Davidson diagonalization with overlap
     ethr =  2.79E-10,  avg # of iterations =  1.0

     total cpu time spent up to now is        4.6 secs

     End of self-consistent calculation

          k = 0.0000 0.0000 0.0000 (   113 PWs)   bands (ev):

    -5.2219   6.6447   6.6447   6.8338

          k = 1.0000 0.0000 0.0000 (   108 PWs)   bands (ev):

    -1.0602  -0.9870   3.5807   3.6241

          k = 0.0000 1.0000 0.0000 (   108 PWs)   bands (ev):

    -1.0602  -0.9870   3.5807   3.6241

          k = 0.0000 0.0000 1.0000 (   108 PWs)   bands (ev):

    -1.0602  -0.9870   3.5807   3.6241

     highest occupied level (ev):     6.8338

!    total energy              =     -15.54457588 Ry
     Harris-Foulkes estimate   =     -15.54457588 Ry
     estimated scf accuracy    <          6.5E-11 Ry

     convergence has been achieved in   3 iterations

     Forces acting on atoms (Ry/au):

     atom    1 type  1   force =     0.00806062    0.00806062    0.00806048
     atom    2 type  1   force =    -0.00806062   -0.00806062   -0.00806048

     Total force =     0.019744     Total SCF correction =     0.000000

     Entering Dynamics:    iteration =   100
                           time      =   0.0968 pico-seconds


ATOMIC_POSITIONS (alat)
Si      -0.125960319  -0.125960319  -0.125960298
Si       0.125960319   0.125960319   0.125960298


     kinetic energy (Ekin) =     0.00062244 Ry
     temperature           =    65.51693250 K 
     Ekin + Etot (const)   =   -15.54395344 Ry

     Linear momentum :    0.0000000000    0.0000000000    0.0000000000

     The maximum number of steps has been reached.

     End of molecular dynamics calculation

     diffusion coefficients :
     atom     1   D =       0.00000013 cm^2/s
     atom     2   D =       0.00000013 cm^2/s

     < D > =       0.00000013 cm^2/s

     Writing output data file pwscf.save
 
     init_run     :      0.01s CPU      0.01s WALL (       1 calls)
     electrons    :      1.51s CPU      1.62s WALL (     100 calls)
     update_pot   :      0.23s CPU      0.25s WALL (      99 calls)
     forces       :      0.07s CPU      0.07s WALL (     100 calls)

     Called by init_run:
     wfcinit      :      0.00s CPU      0.00s WALL (       1 calls)
     potinit      :      0.00s CPU      0.00s WALL (       1 calls)

     Called by electrons:
     c_bands      :      1.06s CPU      1.15s WALL (     355 calls)
     sum_band     :      0.21s CPU      0.23s WALL (     355 calls)
     v_of_rho     :      0.07s CPU      0.07s WALL (     356 calls)
     mix_rho      :      0.02s CPU      0.02s WALL (     355 calls)

     Called by c_bands:
     init_us_2    :      0.04s CPU      0.05s WALL (    3244 calls)
     cegterg      :      0.97s CPU      1.04s WALL (    1420 calls)

     Called by sum_band:

     Called by *egterg:
     h_psi        :      0.71s CPU      0.77s WALL (    3136 calls)
     g_psi        :      0.01s CPU      0.01s WALL (    1712 calls)
     cdiaghg      :      0.15s CPU      0.14s WALL (    2340 calls)

     Called by h_psi:
     add_vuspsi   :      0.03s CPU      0.03s WALL (    3136 calls)

     General routines
     calbec       :      0.07s CPU      0.08s WALL (    5128 calls)
     fft          :      0.05s CPU      0.07s WALL (    1821 calls)
     fftw         :      0.70s CPU      0.76s WALL (   29614 calls)
     davcio       :      0.04s CPU      0.05s WALL (    7608 calls)
 
     Parallel routines
     fft_scatter  :      0.18s CPU      0.21s WALL (   31435 calls)
 
     PWSCF        :     4.30s CPU         4.61s WALL

 
   This run was terminated on:  11:19:40  15Jun2016            

=------------------------------------------------------------------------------=
   JOB DONE.
=------------------------------------------------------------------------------=
