
     Program PWSCF v.5.3.0 (svn rev. 12078) starts on 28Jan2016 at 10:29:54 

     This program is part of the open-source Quantum ESPRESSO suite
     for quantum simulation of materials; please cite
         "P. Giannozzi et al., J. Phys.:Condens. Matter 21 395502 (2009);
          URL http://www.quantum-espresso.org", 
     in publications or presentations arising from this work. More details at
     http://www.quantum-espresso.org/quote

     Parallel version (MPI), running on     2 processors
     R & G space division:  proc/nbgrp/npool/nimage =       2
     Waiting for input...
     Reading input from standard input
     Message from routine read_cards :
     DEPRECATED: no units specified in ATOMIC_POSITIONS card
     Message from routine read_cards :
     ATOMIC_POSITIONS: units set to alat

     Current dimensions of program PWSCF are:
     Max number of different atomic species (ntypx) = 10
     Max number of k-points (npk) =  40000
     Max angular momentum in pseudopotentials (lmaxx) =  3

     Atomic positions and unit cell read from directory:
     /home/nvarini/espresso_hdf5/espresso/tempdir/al.save/
 

     Subspace diagonalization in iterative solution of the eigenvalue problem:
     a serial algorithm will be used

 
     Parallelization info
     --------------------
     sticks:   dense  smooth     PW     G-vecs:    dense   smooth      PW
     Min          60      60     27                  434      434     129
     Max          61      61     28                  435      435     130
     Sum         121     121     55                  869      869     259
 


     bravais-lattice index     =            2
     lattice parameter (alat)  =       7.5000  a.u.
     unit-cell volume          =     105.4688 (a.u.)^3
     number of atoms/cell      =            1
     number of atomic types    =            1
     number of electrons       =         3.00
     number of Kohn-Sham states=            8
     kinetic-energy cutoff     =      15.0000  Ry
     charge density cutoff     =      60.0000  Ry
     Exchange-correlation      =  SLA  PZ   NOGX NOGC ( 1  1  0  0 0 0)

     celldm(1)=   7.500000  celldm(2)=   0.000000  celldm(3)=   0.000000
     celldm(4)=   0.000000  celldm(5)=   0.000000  celldm(6)=   0.000000

     crystal axes: (cart. coord. in units of alat)
               a(1) = (  -0.500000   0.000000   0.500000 )  
               a(2) = (   0.000000   0.500000   0.500000 )  
               a(3) = (  -0.500000   0.500000   0.000000 )  

     reciprocal axes: (cart. coord. in units 2 pi/alat)
               b(1) = ( -1.000000 -1.000000  1.000000 )  
               b(2) = (  1.000000  1.000000  1.000000 )  
               b(3) = ( -1.000000  1.000000 -1.000000 )  


     PseudoPot. # 1 for Al read from file:
     /home/nvarini/espresso_hdf5/espresso/pseudo/Al.pz-vbc.UPF
     MD5 check sum: 614279c88ff8d45c90147292d03ed420
     Pseudo is Norm-conserving, Zval =  3.0
     Generated by new atomic code, or converted to UPF format
     Using radial grid of  171 points,  2 beta functions with: 
                l(1) =   0
                l(2) =   1

     atomic species   valence    mass     pseudopotential
        Al             3.00    26.98000     Al( 1.00)

     48 Sym. Ops., with inversion, found



   Cartesian axes

     site n.     atom                  positions (alat units)
         1           Al  tau(   1) = (   0.0000000   0.0000000   0.0000000  )

     number of k points=    28
                       cart. coord. in units 2pi/alat
        k(    1) = (   0.0000000   0.0000000   0.0000000), wk =   0.0714286
        k(    2) = (   0.0000000   0.0000000   0.1000000), wk =   0.0714286
        k(    3) = (   0.0000000   0.0000000   0.2000000), wk =   0.0714286
        k(    4) = (   0.0000000   0.0000000   0.3000000), wk =   0.0714286
        k(    5) = (   0.0000000   0.0000000   0.4000000), wk =   0.0714286
        k(    6) = (   0.0000000   0.0000000   0.5000000), wk =   0.0714286
        k(    7) = (   0.0000000   0.0000000   0.6000000), wk =   0.0714286
        k(    8) = (   0.0000000   0.0000000   0.7000000), wk =   0.0714286
        k(    9) = (   0.0000000   0.0000000   0.8000000), wk =   0.0714286
        k(   10) = (   0.0000000   0.0000000   0.9000000), wk =   0.0714286
        k(   11) = (   0.0000000   0.0000000   1.0000000), wk =   0.0714286
        k(   12) = (   0.0000000   0.0000000   0.0000000), wk =   0.0714286
        k(   13) = (   0.0000000   0.1000000   0.1000000), wk =   0.0714286
        k(   14) = (   0.0000000   0.2000000   0.2000000), wk =   0.0714286
        k(   15) = (   0.0000000   0.3000000   0.3000000), wk =   0.0714286
        k(   16) = (   0.0000000   0.4000000   0.4000000), wk =   0.0714286
        k(   17) = (   0.0000000   0.5000000   0.5000000), wk =   0.0714286
        k(   18) = (   0.0000000   0.6000000   0.6000000), wk =   0.0714286
        k(   19) = (   0.0000000   0.7000000   0.7000000), wk =   0.0714286
        k(   20) = (   0.0000000   0.8000000   0.8000000), wk =   0.0714286
        k(   21) = (   0.0000000   0.9000000   0.9000000), wk =   0.0714286
        k(   22) = (   0.0000000   1.0000000   1.0000000), wk =   0.0714286
        k(   23) = (   0.0000000   0.0000000   0.0000000), wk =   0.0714286
        k(   24) = (   0.1000000   0.1000000   0.1000000), wk =   0.0714286
        k(   25) = (   0.2000000   0.2000000   0.2000000), wk =   0.0714286
        k(   26) = (   0.3000000   0.3000000   0.3000000), wk =   0.0714286
        k(   27) = (   0.4000000   0.4000000   0.4000000), wk =   0.0714286
        k(   28) = (   0.5000000   0.5000000   0.5000000), wk =   0.0714286

     Dense  grid:      869 G-vectors     FFT dimensions: (  15,  15,  15)

     Largest allocated arrays     est. size (Mb)     dimensions
        Kohn-Sham Wavefunctions         0.01 Mb     (      58,    8)
        NL pseudopotentials             0.00 Mb     (      58,    4)
        Each V/rho on FFT grid          0.03 Mb     (    1800)
        Each G-vector array             0.00 Mb     (     435)
        G-vector shells                 0.00 Mb     (      31)
     Largest temporary arrays     est. size (Mb)     dimensions
        Auxiliary wavefunctions         0.03 Mb     (      58,   32)
        Each subspace H/S matrix        0.02 Mb     (      32,   32)
        Each <psi_i|beta_j> matrix      0.00 Mb     (       4,    8)

     The potential is recalculated from file :
     /home/nvarini/espresso_hdf5/espresso/tempdir/al.save/charge-density.dat

     Starting wfc are    4 randomized atomic wfcs +    4 random wfc

     Band Structure Calculation
     Davidson diagonalization with overlap

     ethr =  3.33E-08,  avg # of iterations = 13.1

     total cpu time spent up to now is        0.5 secs

     End of band structure calculation

          k = 0.0000 0.0000 0.0000 (   113 PWs)   bands (ev):

    -3.2012  21.1805  21.1805  21.1805  22.5635  22.5635  22.5635  25.0355

          k = 0.0000 0.0000 0.1000 (   113 PWs)   bands (ev):

    -3.1061  20.2376  20.2376  20.4963  22.3614  23.6499  23.6499  25.9086

          k = 0.0000 0.0000 0.2000 (   109 PWs)   bands (ev):

    -2.8198  18.9754  18.9754  19.2259  21.8337  24.6086  25.3353  25.3353

          k = 0.0000 0.0000 0.3000 (   109 PWs)   bands (ev):

    -2.3474  17.8233  17.8233  17.9429  21.1261  21.8921  27.1518  27.1518

          k = 0.0000 0.0000 0.4000 (   101 PWs)   bands (ev):

    -1.6844  16.7801  16.8298  16.8298  19.2326  20.3600  29.0037  29.0037

          k = 0.0000 0.0000 0.5000 (   101 PWs)   bands (ev):

    -0.8458  15.7786  15.9785  15.9785  16.6842  19.6278  30.6902  30.7879

          k = 0.0000 0.0000 0.6000 (   105 PWs)   bands (ev):

     0.1694  14.2685  14.9511  15.2837  15.2837  18.9607  31.6232  32.4234

          k = 0.0000 0.0000 0.7000 (   104 PWs)   bands (ev):

     1.3553  11.9967  14.3039  14.7452  14.7452  18.4215  32.6774  33.9028

          k = 0.0000 0.0000 0.8000 (   104 PWs)   bands (ev):

     2.6997   9.8772  13.8402  14.3618  14.3618  18.0205  33.7830  35.2474

          k = 0.0000 0.0000 0.9000 (   108 PWs)   bands (ev):

     4.1726   7.9366  13.5584  14.1312  14.1312  17.7733  34.7443  36.3731

          k = 0.0000 0.0000 1.0000 (   108 PWs)   bands (ev):

     5.3230   6.6315  13.4653  14.0546  14.0546  17.6901  35.1775  36.8959

          k = 0.0000 0.0000 0.0000 (   113 PWs)   bands (ev):

    -3.2012  21.1805  21.1805  21.1805  22.5635  22.5635  22.5635  25.0355

          k = 0.0000 0.1000 0.1000 (   113 PWs)   bands (ev):

    -3.0111  18.9129  19.5414  21.3654  22.6753  23.4747  23.9610  26.8658

          k = 0.0000 0.2000 0.2000 (   105 PWs)   bands (ev):

    -2.4400  16.1108  17.2984  21.9222  22.8784  24.0949  24.5665  25.4211

          k = 0.0000 0.3000 0.3000 (    99 PWs)   bands (ev):

    -1.4970  13.5812  15.0730  21.6543  22.8477  23.7440  24.1120  24.8941

          k = 0.0000 0.4000 0.4000 (   101 PWs)   bands (ev):

    -0.1981  11.3741  13.0027  19.6807  21.7647  24.1320  24.9928  25.9740

          k = 0.0000 0.5000 0.5000 (    97 PWs)   bands (ev):

     1.4495   9.5150  11.1625  17.9583  19.9832  25.7854  26.2530  27.3618

          k = 0.0000 0.6000 0.6000 (   101 PWs)   bands (ev):

     3.4234   7.9982   9.5956  16.5473  18.4440  27.7715  27.8184  29.0431

          k = 0.0000 0.7000 0.7000 (   101 PWs)   bands (ev):

     5.6852   6.8240   8.3683  15.4527  17.1902  26.1524  29.6938  30.0788

          k = 0.0000 0.8000 0.8000 (   102 PWs)   bands (ev):

     5.9887   7.2788   8.4223  14.6754  16.2140  22.4567  31.8197  32.6494

          k = 0.0000 0.9000 0.9000 (   102 PWs)   bands (ev):

     5.4892   6.8151  11.0886  14.2114  15.3721  19.2117  33.9875  35.2916

          k = 0.0000 1.0000 1.0000 (   108 PWs)   bands (ev):

     5.3230   6.6315  13.4653  14.0546  14.0546  17.6901  35.1775  36.8959

          k = 0.0000 0.0000 0.0000 (   113 PWs)   bands (ev):

    -3.2012  21.1805  21.1805  21.1805  22.5635  22.5635  22.5635  25.0355

          k = 0.1000 0.1000 0.1000 (   113 PWs)   bands (ev):

    -2.9162  17.7693  20.4064  20.4064  23.2976  23.7581  23.7581  26.9988

          k = 0.2000 0.2000 0.2000 (   107 PWs)   bands (ev):

    -2.0633  13.7088  19.6306  19.6306  23.0521  24.2449  24.2449  26.4717

          k = 0.3000 0.3000 0.3000 (    98 PWs)   bands (ev):

    -0.6602   9.9564  19.2772  19.2772  22.4609  22.4609  22.9133  26.4954

          k = 0.4000 0.4000 0.4000 (   105 PWs)   bands (ev):

     1.2658   6.6064  19.3736  19.3736  20.9661  20.9661  23.1369  24.9810

          k = 0.5000 0.5000 0.5000 (   108 PWs)   bands (ev):

     3.5785   3.8182  19.9117  19.9117  19.9558  19.9558  23.6754  23.9906

     Writing output data file al.save
 
     init_run     :      0.01s CPU      0.01s WALL (       1 calls)
     electrons    :      0.25s CPU      0.26s WALL (       1 calls)

     Called by init_run:
     wfcinit      :      0.00s CPU      0.00s WALL (       1 calls)
     potinit      :      0.00s CPU      0.00s WALL (       1 calls)

     Called by electrons:
     c_bands      :      0.25s CPU      0.26s WALL (       1 calls)
     v_of_rho     :      0.00s CPU      0.00s WALL (       1 calls)

     Called by c_bands:
     init_us_2    :      0.00s CPU      0.00s WALL (      28 calls)
     cegterg      :      0.24s CPU      0.24s WALL (      29 calls)

     Called by sum_band:

     Called by *egterg:
     h_psi        :      0.13s CPU      0.14s WALL (     425 calls)
     g_psi        :      0.00s CPU      0.00s WALL (     368 calls)
     cdiaghg      :      0.11s CPU      0.09s WALL (     396 calls)

     Called by h_psi:
     add_vuspsi   :      0.00s CPU      0.00s WALL (     425 calls)

     General routines
     calbec       :      0.01s CPU      0.01s WALL (     425 calls)
     fft          :      0.00s CPU      0.00s WALL (       3 calls)
     fftw         :      0.11s CPU      0.11s WALL (    4354 calls)
     davcio       :      0.00s CPU      0.00s WALL (      28 calls)
 
     Parallel routines
     fft_scatter  :      0.03s CPU      0.03s WALL (    4357 calls)
 
     PWSCF        :     0.60s CPU         0.61s WALL

 
   This run was terminated on:  10:29:55  28Jan2016            

=------------------------------------------------------------------------------=
   JOB DONE.
=------------------------------------------------------------------------------=
