
     Program PWSCF v.5.3.0 (svn rev. 12078) starts on 28Jan2016 at 10:30: 5 

     This program is part of the open-source Quantum ESPRESSO suite
     for quantum simulation of materials; please cite
         "P. Giannozzi et al., J. Phys.:Condens. Matter 21 395502 (2009);
          URL http://www.quantum-espresso.org", 
     in publications or presentations arising from this work. More details at
     http://www.quantum-espresso.org/quote

     Parallel version (MPI), running on     2 processors
     R & G space division:  proc/nbgrp/npool/nimage =       2
     Waiting for input...
     Reading input from standard input
     Message from routine read_cards :
     DEPRECATED: no units specified in ATOMIC_POSITIONS card
     Message from routine read_cards :
     ATOMIC_POSITIONS: units set to alat

     Current dimensions of program PWSCF are:
     Max number of different atomic species (ntypx) = 10
     Max number of k-points (npk) =  40000
     Max angular momentum in pseudopotentials (lmaxx) =  3

     Subspace diagonalization in iterative solution of the eigenvalue problem:
     a serial algorithm will be used

 
     Parallelization info
     --------------------
     sticks:   dense  smooth     PW     G-vecs:    dense   smooth      PW
     Min          60      60     21                  434      434      90
     Max          61      61     22                  435      435      91
     Sum         121     121     43                  869      869     181
 


     bravais-lattice index     =            2
     lattice parameter (alat)  =       7.5000  a.u.
     unit-cell volume          =     105.4688 (a.u.)^3
     number of atoms/cell      =            1
     number of atomic types    =            1
     number of electrons       =         3.00
     number of Kohn-Sham states=            6
     kinetic-energy cutoff     =      15.0000  Ry
     charge density cutoff     =      60.0000  Ry
     convergence threshold     =      1.0E-06
     mixing beta               =       0.7000
     number of iterations used =            8  plain     mixing
     Exchange-correlation      =  SLA  PZ   NOGX NOGC ( 1  1  0  0 0 0)

     celldm(1)=   7.500000  celldm(2)=   0.000000  celldm(3)=   0.000000
     celldm(4)=   0.000000  celldm(5)=   0.000000  celldm(6)=   0.000000

     crystal axes: (cart. coord. in units of alat)
               a(1) = (  -0.500000   0.000000   0.500000 )  
               a(2) = (   0.000000   0.500000   0.500000 )  
               a(3) = (  -0.500000   0.500000   0.000000 )  

     reciprocal axes: (cart. coord. in units 2 pi/alat)
               b(1) = ( -1.000000 -1.000000  1.000000 )  
               b(2) = (  1.000000  1.000000  1.000000 )  
               b(3) = ( -1.000000  1.000000 -1.000000 )  


     PseudoPot. # 1 for Al read from file:
     /home/nvarini/espresso_hdf5/espresso/pseudo/Al.pz-vbc.UPF
     MD5 check sum: 614279c88ff8d45c90147292d03ed420
     Pseudo is Norm-conserving, Zval =  3.0
     Generated by new atomic code, or converted to UPF format
     Using radial grid of  171 points,  2 beta functions with: 
                l(1) =   0
                l(2) =   1

     atomic species   valence    mass     pseudopotential
        Al             3.00    26.98000     Al( 1.00)

     48 Sym. Ops., with inversion, found



   Cartesian axes

     site n.     atom                  positions (alat units)
         1           Al  tau(   1) = (   0.0000000   0.0000000   0.0000000  )

     number of k points=    60  Marzari-Vanderbilt smearing, width (Ry)=  0.0500
                       cart. coord. in units 2pi/alat
        k(    1) = (   0.0625000   0.0625000   0.0625000), wk =   0.0078125
        k(    2) = (   0.0625000   0.0625000   0.1875000), wk =   0.0234375
        k(    3) = (   0.0625000   0.0625000   0.3125000), wk =   0.0234375
        k(    4) = (   0.0625000   0.0625000   0.4375000), wk =   0.0234375
        k(    5) = (   0.0625000   0.0625000   0.5625000), wk =   0.0234375
        k(    6) = (   0.0625000   0.0625000   0.6875000), wk =   0.0234375
        k(    7) = (   0.0625000   0.0625000   0.8125000), wk =   0.0234375
        k(    8) = (   0.0625000   0.0625000   0.9375000), wk =   0.0234375
        k(    9) = (   0.0625000   0.1875000   0.1875000), wk =   0.0234375
        k(   10) = (   0.0625000   0.1875000   0.3125000), wk =   0.0468750
        k(   11) = (   0.0625000   0.1875000   0.4375000), wk =   0.0468750
        k(   12) = (   0.0625000   0.1875000   0.5625000), wk =   0.0468750
        k(   13) = (   0.0625000   0.1875000   0.6875000), wk =   0.0468750
        k(   14) = (   0.0625000   0.1875000   0.8125000), wk =   0.0468750
        k(   15) = (   0.0625000   0.1875000   0.9375000), wk =   0.0468750
        k(   16) = (   0.0625000   0.3125000   0.3125000), wk =   0.0234375
        k(   17) = (   0.0625000   0.3125000   0.4375000), wk =   0.0468750
        k(   18) = (   0.0625000   0.3125000   0.5625000), wk =   0.0468750
        k(   19) = (   0.0625000   0.3125000   0.6875000), wk =   0.0468750
        k(   20) = (   0.0625000   0.3125000   0.8125000), wk =   0.0468750
        k(   21) = (   0.0625000   0.3125000   0.9375000), wk =   0.0468750
        k(   22) = (   0.0625000   0.4375000   0.4375000), wk =   0.0234375
        k(   23) = (   0.0625000   0.4375000   0.5625000), wk =   0.0468750
        k(   24) = (   0.0625000   0.4375000   0.6875000), wk =   0.0468750
        k(   25) = (   0.0625000   0.4375000   0.8125000), wk =   0.0468750
        k(   26) = (   0.0625000   0.4375000   0.9375000), wk =   0.0468750
        k(   27) = (   0.0625000   0.5625000   0.5625000), wk =   0.0234375
        k(   28) = (   0.0625000   0.5625000   0.6875000), wk =   0.0468750
        k(   29) = (   0.0625000   0.5625000   0.8125000), wk =   0.0468750
        k(   30) = (   0.0625000   0.6875000   0.6875000), wk =   0.0234375
        k(   31) = (   0.0625000   0.6875000   0.8125000), wk =   0.0468750
        k(   32) = (   0.0625000   0.8125000   0.8125000), wk =   0.0234375
        k(   33) = (   0.1875000   0.1875000   0.1875000), wk =   0.0078125
        k(   34) = (   0.1875000   0.1875000   0.3125000), wk =   0.0234375
        k(   35) = (   0.1875000   0.1875000   0.4375000), wk =   0.0234375
        k(   36) = (   0.1875000   0.1875000   0.5625000), wk =   0.0234375
        k(   37) = (   0.1875000   0.1875000   0.6875000), wk =   0.0234375
        k(   38) = (   0.1875000   0.1875000   0.8125000), wk =   0.0234375
        k(   39) = (   0.1875000   0.3125000   0.3125000), wk =   0.0234375
        k(   40) = (   0.1875000   0.3125000   0.4375000), wk =   0.0468750
        k(   41) = (   0.1875000   0.3125000   0.5625000), wk =   0.0468750
        k(   42) = (   0.1875000   0.3125000   0.6875000), wk =   0.0468750
        k(   43) = (   0.1875000   0.3125000   0.8125000), wk =   0.0468750
        k(   44) = (   0.1875000   0.4375000   0.4375000), wk =   0.0234375
        k(   45) = (   0.1875000   0.4375000   0.5625000), wk =   0.0468750
        k(   46) = (   0.1875000   0.4375000   0.6875000), wk =   0.0468750
        k(   47) = (   0.1875000   0.4375000   0.8125000), wk =   0.0468750
        k(   48) = (   0.1875000   0.5625000   0.5625000), wk =   0.0234375
        k(   49) = (   0.1875000   0.5625000   0.6875000), wk =   0.0468750
        k(   50) = (   0.1875000   0.6875000   0.6875000), wk =   0.0234375
        k(   51) = (   0.3125000   0.3125000   0.3125000), wk =   0.0078125
        k(   52) = (   0.3125000   0.3125000   0.4375000), wk =   0.0234375
        k(   53) = (   0.3125000   0.3125000   0.5625000), wk =   0.0234375
        k(   54) = (   0.3125000   0.3125000   0.6875000), wk =   0.0234375
        k(   55) = (   0.3125000   0.4375000   0.4375000), wk =   0.0234375
        k(   56) = (   0.3125000   0.4375000   0.5625000), wk =   0.0468750
        k(   57) = (   0.3125000   0.4375000   0.6875000), wk =   0.0468750
        k(   58) = (   0.3125000   0.5625000   0.5625000), wk =   0.0234375
        k(   59) = (   0.4375000   0.4375000   0.4375000), wk =   0.0078125
        k(   60) = (   0.4375000   0.4375000   0.5625000), wk =   0.0234375

     Dense  grid:      869 G-vectors     FFT dimensions: (  15,  15,  15)

     Largest allocated arrays     est. size (Mb)     dimensions
        Kohn-Sham Wavefunctions         0.01 Mb     (      57,    6)
        NL pseudopotentials             0.00 Mb     (      57,    4)
        Each V/rho on FFT grid          0.03 Mb     (    1800)
        Each G-vector array             0.00 Mb     (     435)
        G-vector shells                 0.00 Mb     (      31)
     Largest temporary arrays     est. size (Mb)     dimensions
        Each subspace H/S matrix        0.00 Mb     (       6,    6)
        Each <psi_i|beta_j> matrix      0.00 Mb     (       4,    6)
        Arrays for rho mixing           0.22 Mb     (    1800,    8)

     Initial potential from superposition of free atoms

     starting charge    2.99794, renormalised to    3.00000
     Starting wfc are    4 randomized atomic wfcs +    2 random wfc

     total cpu time spent up to now is        0.1 secs

     per-process dynamical memory:    18.9 Mb

     Self-consistent Calculation

     iteration #  1     ecut=    15.00 Ry     beta=0.70
     CG style diagonalization
     ethr =  1.00E-02,  avg # of iterations =  5.1

     Threshold (ethr) on eigenvalues was too large:
     Diagonalizing with lowered threshold

     CG style diagonalization
     ethr =  4.17E-05,  avg # of iterations =  8.1

     total cpu time spent up to now is        0.6 secs

     total energy              =      -4.18792250 Ry
     Harris-Foulkes estimate   =      -4.18806488 Ry
     estimated scf accuracy    <       0.00128790 Ry

     iteration #  2     ecut=    15.00 Ry     beta=0.70
     CG style diagonalization
     ethr =  4.29E-05,  avg # of iterations =  9.1

     total cpu time spent up to now is        1.0 secs

     total energy              =      -4.18757038 Ry
     Harris-Foulkes estimate   =      -4.18758177 Ry
     estimated scf accuracy    <       0.00011577 Ry

     iteration #  3     ecut=    15.00 Ry     beta=0.70
     CG style diagonalization
     c_bands:  1 eigenvalues not converged
     c_bands:  1 eigenvalues not converged
     c_bands:  1 eigenvalues not converged
     c_bands:  1 eigenvalues not converged
     ethr =  3.86E-06,  avg # of iterations = 10.7

     total cpu time spent up to now is        1.5 secs

     End of self-consistent calculation

          k = 0.0625 0.0625 0.0625 (   113 PWs)   bands (ev):

    -3.0898  19.3079  20.7720  20.7720  23.1430  23.2293

          k = 0.0625 0.0625 0.1875 (   111 PWs)   bands (ev):

    -2.7925  17.6244  19.1921  20.2764  22.4760  24.4766

          k = 0.0625 0.0625 0.3125 (   106 PWs)   bands (ev):

    -2.2000  16.0955  17.7550  18.9127  21.4478  21.7850

          k = 0.0625 0.0625 0.4375 (   103 PWs)   bands (ev):

    -1.3191  14.7909  16.5536  17.6094  18.3671  20.6618

          k = 0.0625 0.0625 0.5625 (   103 PWs)   bands (ev):

    -0.1597  13.7291  15.5870  15.2247  16.6066  19.8004

          k = 0.0625 0.0625 0.6875 (   105 PWs)   bands (ev):

     1.2695  12.3046  12.9811  14.8644  15.7934  19.0908

          k = 0.0625 0.0625 0.8125 (   105 PWs)   bands (ev):

     2.9487   9.6839  12.4227  14.3842  15.2542  18.6038

          k = 0.0625 0.0625 0.9375 (   103 PWs)   bands (ev):

     4.7922   7.3615  12.1534  14.1465  14.9849  18.3545

          k = 0.0625 0.1875 0.1875 (   108 PWs)   bands (ev):

    -2.4958  15.8999  18.1436  21.3104  23.3680  23.7828

          k = 0.0625 0.1875 0.3125 (   104 PWs)   bands (ev):

    -1.9049  14.3490  16.7484  20.7080  21.6947  23.3001

          k = 0.0625 0.1875 0.4375 (   103 PWs)   bands (ev):

    -1.0276  13.0365  15.5150  18.5977  19.5704  22.3309

          k = 0.0625 0.1875 0.5625 (   102 PWs)   bands (ev):

     0.1292  11.9761  14.4592  15.5986  18.5634  21.5028

          k = 0.0625 0.1875 0.6875 (   102 PWs)   bands (ev):

     1.5545  11.1634  12.5768  13.8705  17.7856  20.8320

          k = 0.0625 0.1875 0.8125 (   104 PWs)   bands (ev):

     3.2272   9.8983  10.7159  13.3140  17.2601  20.3699

          k = 0.0625 0.1875 0.9375 (   104 PWs)   bands (ev):

     5.0598   7.6279  10.4124  13.0502  16.9969  20.1339

          k = 0.0625 0.3125 0.3125 (   104 PWs)   bands (ev):

    -1.3197  12.7827  15.3513  21.4196  22.4613  23.4789

          k = 0.0625 0.3125 0.4375 (   101 PWs)   bands (ev):

    -0.4479  11.4646  14.1015  19.0230  21.9963  23.4256

          k = 0.0625 0.3125 0.5625 (   103 PWs)   bands (ev):

     0.7010  10.4016  13.0534  16.0815  21.1123  23.5055

          k = 0.0625 0.3125 0.6875 (   104 PWs)   bands (ev):

     2.1179   9.5996  12.1614  13.3571  20.3718  23.0352

          k = 0.0625 0.3125 0.8125 (   103 PWs)   bands (ev):

     3.7804   9.0488  10.4453  11.9453  19.8636  22.6345

          k = 0.0625 0.3125 0.9375 (   104 PWs)   bands (ev):

     5.5939   8.1035   8.8957  11.6119  19.6057  22.4225

          k = 0.0625 0.4375 0.4375 (    98 PWs)   bands (ev):

     0.4161  10.1426  12.8339  19.0309  21.0938  24.0212

          k = 0.0625 0.4375 0.5625 (   101 PWs)   bands (ev):

     1.5550   9.0792  11.7781  16.7660  21.3133  23.8784

          k = 0.0625 0.4375 0.6875 (   104 PWs)   bands (ev):

     2.9575   8.2778  10.9542  14.0377  22.3898  23.2842

          k = 0.0625 0.4375 0.8125 (   105 PWs)   bands (ev):

     4.6020   7.7419  10.2899  11.5778  22.6878  23.8334

          k = 0.0625 0.4375 0.9375 (   105 PWs)   bands (ev):

     6.3834   7.4573   8.9299  10.4251  22.4671  24.6853

          k = 0.0625 0.5625 0.5625 (   103 PWs)   bands (ev):

     2.6806   8.0153  10.7157  17.0680  19.0174  26.0955

          k = 0.0625 0.5625 0.6875 (   103 PWs)   bands (ev):

     4.0654   7.2161   9.9001  14.9914  19.5246  26.1799

          k = 0.0625 0.5625 0.8125 (   105 PWs)   bands (ev):

     5.6748   6.6930   9.3337  12.5044  20.9117  25.7092

          k = 0.0625 0.6875 0.6875 (   101 PWs)   bands (ev):

     5.4150   6.4300   9.0918  15.6024  17.3644  26.6325

          k = 0.0625 0.6875 0.8125 (   104 PWs)   bands (ev):

     5.8511   7.0297   8.5671  13.7246  18.1451  24.3658

          k = 0.0625 0.8125 0.8125 (   102 PWs)   bands (ev):

     5.3274   7.8299   8.7931  14.6304  16.1433  22.0422

          k = 0.1875 0.1875 0.1875 (   107 PWs)   bands (ev):

    -2.1998  14.2034  19.7064  19.7064  23.0859  24.4281

          k = 0.1875 0.1875 0.3125 (   103 PWs)   bands (ev):

    -1.6119  12.6509  18.2592  19.6982  21.8891  24.1348

          k = 0.1875 0.1875 0.4375 (   105 PWs)   bands (ev):

    -0.7391  11.3318  17.0431  18.9590  18.5722  24.1626

          k = 0.1875 0.1875 0.5625 (   104 PWs)   bands (ev):

     0.4139  10.2665  16.0747  15.7426  17.7733  23.3707

          k = 0.1875 0.1875 0.6875 (   105 PWs)   bands (ev):

     1.8359   9.4578  12.9008  15.3510  16.9690  22.7207

          k = 0.1875 0.1875 0.8125 (   104 PWs)   bands (ev):

     3.5039   8.8869  10.3080  14.8695  16.4207  22.2706

          k = 0.1875 0.3125 0.3125 (   102 PWs)   bands (ev):

    -1.0280  11.0869  17.3981  20.7135  21.7712  23.2729

          k = 0.1875 0.3125 0.4375 (   103 PWs)   bands (ev):

    -0.1602   9.7600  16.1989  19.2533  20.4574  23.5595

          k = 0.1875 0.3125 0.5625 (   106 PWs)   bands (ev):

     0.9846   8.6873  15.1600  16.3366  19.6284  24.4276

          k = 0.1875 0.3125 0.6875 (   103 PWs)   bands (ev):

     2.3989   7.8790  13.3726  14.5401  18.9065  24.8592

          k = 0.1875 0.3125 0.8125 (   104 PWs)   bands (ev):

     4.0542   7.3335  10.8053  13.9878  18.4017  24.5592

          k = 0.1875 0.4375 0.4375 (   101 PWs)   bands (ev):

     0.7011   8.4264  14.9938  19.2780  21.2400  22.2847

          k = 0.1875 0.4375 0.5625 (   103 PWs)   bands (ev):

     1.8363   7.3476  13.9650  17.0132  21.4652  22.2895

          k = 0.1875 0.4375 0.6875 (   101 PWs)   bands (ev):

     3.2362   6.5365  13.1151  14.3440  21.5713  22.7604

          k = 0.1875 0.4375 0.8125 (   103 PWs)   bands (ev):

     4.8623   6.0076  11.5203  12.8308  21.1458  24.1573

          k = 0.1875 0.5625 0.5625 (   103 PWs)   bands (ev):

     2.9586   6.2668  12.9368  17.3107  19.2528  24.3098

          k = 0.1875 0.5625 0.6875 (   103 PWs)   bands (ev):

     4.3291   5.4639  12.1358  15.2489  19.7641  24.5032

          k = 0.1875 0.6875 0.6875 (   101 PWs)   bands (ev):

     4.5918   5.7484  11.3505  15.8452  17.6282  26.7395

          k = 0.3125 0.3125 0.3125 (    98 PWs)   bands (ev):

    -0.4477   9.5149  19.2642  19.2642  22.2510  22.2511

          k = 0.3125 0.3125 0.4375 (   103 PWs)   bands (ev):

     0.4140   8.1759  18.0365  19.4968  19.7129  23.0019

          k = 0.3125 0.3125 0.5625 (   104 PWs)   bands (ev):

     1.5538   7.0931  16.7563  17.0554  18.8513  24.0182

          k = 0.3125 0.3125 0.6875 (   105 PWs)   bands (ev):

     2.9566   6.2774  13.9488  16.3267  18.1424  25.2935

          k = 0.3125 0.4375 0.4375 (   103 PWs)   bands (ev):

     1.2695   6.8281  17.4088  19.7737  20.7816  21.3506

          k = 0.3125 0.4375 0.5625 (   103 PWs)   bands (ev):

     2.3991   5.7381  16.4328  17.5056  20.7541  21.8456

          k = 0.3125 0.4375 0.6875 (   103 PWs)   bands (ev):

     3.7818   4.9254  14.6803  15.7820  20.2129  23.0299

          k = 0.3125 0.5625 0.5625 (   105 PWs)   bands (ev):

     3.5070   4.6488  15.4870  17.7998  19.6704  22.7893

          k = 0.4375 0.4375 0.4375 (   105 PWs)   bands (ev):

     2.1181   5.4657  19.5300  19.5300  20.5238  20.5238

          k = 0.4375 0.4375 0.5625 (   106 PWs)   bands (ev):

     3.2315   4.3719  18.1648  18.5374  20.0793  21.5274

     the Fermi energy is     8.2522 ev

!    total energy              =      -4.18745236 Ry
     Harris-Foulkes estimate   =      -4.18745236 Ry
     estimated scf accuracy    <          1.5E-11 Ry

     The total energy is the sum of the following terms:

     one-electron contribution =       2.93905716 Ry
     hartree contribution      =       0.00720233 Ry
     xc contribution           =      -1.63226904 Ry
     ewald contribution        =      -5.50183453 Ry
     smearing contrib. (-TS)   =       0.00039172 Ry

     convergence has been achieved in   3 iterations

     Forces acting on atoms (Ry/au):

     atom    1 type  1   force =     0.00000000    0.00000000    0.00000000

     Total force =     0.000000     Total SCF correction =     0.000000


     entering subroutine stress ...

          total   stress  (Ry/bohr**3)                   (kbar)     P=  244.25
   0.00166036  -0.00000000   0.00000000        244.25     -0.00      0.00
  -0.00000000   0.00166036   0.00000000         -0.00    244.25      0.00
   0.00000000   0.00000000   0.00166036          0.00      0.00    244.25


     Writing output data file al.save
 
     init_run     :      0.05s CPU      0.05s WALL (       1 calls)
     electrons    :      1.34s CPU      1.42s WALL (       1 calls)
     forces       :      0.00s CPU      0.00s WALL (       1 calls)
     stress       :      0.01s CPU      0.01s WALL (       1 calls)

     Called by init_run:
     wfcinit      :      0.04s CPU      0.04s WALL (       1 calls)
     potinit      :      0.00s CPU      0.00s WALL (       1 calls)

     Called by electrons:
     c_bands      :      1.29s CPU      1.36s WALL (       4 calls)
     sum_band     :      0.05s CPU      0.05s WALL (       4 calls)
     v_of_rho     :      0.00s CPU      0.00s WALL (       4 calls)
     mix_rho      :      0.00s CPU      0.00s WALL (       4 calls)

     Called by c_bands:
     init_us_2    :      0.01s CPU      0.01s WALL (     660 calls)
     ccgdiagg     :      1.23s CPU      1.30s WALL (     240 calls)
     wfcrot       :      0.08s CPU      0.08s WALL (     180 calls)

     Called by sum_band:

     Called by *cgdiagg:
     h_psi        :      0.87s CPU      0.92s WALL (   11319 calls)
     cdiaghg      :      0.01s CPU      0.01s WALL (     180 calls)

     Called by h_psi:
     add_vuspsi   :      0.04s CPU      0.04s WALL (   11319 calls)
     h_1psi       :      0.86s CPU      0.90s WALL (   11139 calls)

     General routines
     calbec       :      0.14s CPU      0.16s WALL (   22758 calls)
     fft          :      0.00s CPU      0.00s WALL (      22 calls)
     fftw         :      0.66s CPU      0.68s WALL (   25878 calls)
     davcio       :      0.00s CPU      0.00s WALL (      60 calls)
 
     Parallel routines
     fft_scatter  :      0.16s CPU      0.17s WALL (   25900 calls)
 
     PWSCF        :     1.59s CPU         1.67s WALL

 
   This run was terminated on:  10:30: 7  28Jan2016            

=------------------------------------------------------------------------------=
   JOB DONE.
=------------------------------------------------------------------------------=
