
     Program PWSCF v.5.4.0 (svn rev. 12496M) starts on 15Jun2016 at 11:19: 6 

     This program is part of the open-source Quantum ESPRESSO suite
     for quantum simulation of materials; please cite
         "P. Giannozzi et al., J. Phys.:Condens. Matter 21 395502 (2009);
          URL http://www.quantum-espresso.org", 
     in publications or presentations arising from this work. More details at
     http://www.quantum-espresso.org/quote
 
           HOST :    @host@
           ARCH :    x86_64
             CC :    cc
            CPP :    cpp
            F90 :    mpif90
            F77 :    gfortran
         DFLAGS :    -D__GFORTRAN -D__STD_F95 -D__DFTI -D__MPI -D__PARA
      BLAS LIBS :    -lmkl_gf_lp64  -lmkl_sequential -lmkl_core
    LAPACK LIBS :    
       FFT LIBS :    
      MASS LIBS :    

     Parallel version (MPI), running on     2 processors
     R & G space division:  proc/nbgrp/npool/nimage =       2
     Waiting for input...
     Reading input from standard input
     Message from routine read_cards :
     DEPRECATED: no units specified in ATOMIC_POSITIONS card
     Message from routine read_cards :
     ATOMIC_POSITIONS: units set to alat

     Current dimensions of program PWSCF are:
     Max number of different atomic species (ntypx) = 10
     Max number of k-points (npk) =  40000
     Max angular momentum in pseudopotentials (lmaxx) =  3

     Atomic positions and unit cell read from directory:
     /home/nvarini/espresso_hdf5/espresso/tempdir/cu.save/
 
               file Cu.pz-d-rrkjus.UPF: wavefunction(s)  3D renormalized

     Subspace diagonalization in iterative solution of the eigenvalue problem:
     a serial algorithm will be used

 
     Parallelization info
     --------------------
     sticks:   dense  smooth     PW     G-vecs:    dense   smooth      PW
     Min         237      75     30                 3367      616     165
     Max         238      76     31                 3368      627     166
     Sum         475     151     61                 6735     1243     331
 


     bravais-lattice index     =            2
     lattice parameter (alat)  =       6.7300  a.u.
     unit-cell volume          =      76.2053 (a.u.)^3
     number of atoms/cell      =            1
     number of atomic types    =            1
     number of electrons       =        11.00
     number of Kohn-Sham states=            8
     kinetic-energy cutoff     =      25.0000  Ry
     charge density cutoff     =     300.0000  Ry
     Exchange-correlation      =  SLA  PZ   NOGX NOGC ( 1  1  0  0 0 0)

     celldm(1)=   6.730000  celldm(2)=   0.000000  celldm(3)=   0.000000
     celldm(4)=   0.000000  celldm(5)=   0.000000  celldm(6)=   0.000000

     crystal axes: (cart. coord. in units of alat)
               a(1) = (  -0.500000   0.000000   0.500000 )  
               a(2) = (   0.000000   0.500000   0.500000 )  
               a(3) = (  -0.500000   0.500000   0.000000 )  

     reciprocal axes: (cart. coord. in units 2 pi/alat)
               b(1) = ( -1.000000 -1.000000  1.000000 )  
               b(2) = (  1.000000  1.000000  1.000000 )  
               b(3) = ( -1.000000  1.000000 -1.000000 )  


     PseudoPot. # 1 for Cu read from file:
     /home/nvarini/espresso_hdf5/espresso/pseudo/Cu.pz-d-rrkjus.UPF
     MD5 check sum: fd38ae683e239c95a66f426e1f8e5fc7
     Pseudo is Ultrasoft, Zval = 11.0
     Generated by new atomic code, or converted to UPF format
     Using radial grid of  899 points,  3 beta functions with: 
                l(1) =   2
                l(2) =   2
                l(3) =   1
     Q(r) pseudized with 0 coefficients 


     atomic species   valence    mass     pseudopotential
        Cu            11.00    63.55000     Cu( 1.00)

     48 Sym. Ops., with inversion, found



   Cartesian axes

     site n.     atom                  positions (alat units)
         1           Cu  tau(   1) = (   0.0000000   0.0000000   0.0000000  )

     number of k points=    28
                       cart. coord. in units 2pi/alat
        k(    1) = (   0.0000000   0.0000000   0.0000000), wk =   0.0714286
        k(    2) = (   0.0000000   0.0000000   0.1000000), wk =   0.0714286
        k(    3) = (   0.0000000   0.0000000   0.2000000), wk =   0.0714286
        k(    4) = (   0.0000000   0.0000000   0.3000000), wk =   0.0714286
        k(    5) = (   0.0000000   0.0000000   0.4000000), wk =   0.0714286
        k(    6) = (   0.0000000   0.0000000   0.5000000), wk =   0.0714286
        k(    7) = (   0.0000000   0.0000000   0.6000000), wk =   0.0714286
        k(    8) = (   0.0000000   0.0000000   0.7000000), wk =   0.0714286
        k(    9) = (   0.0000000   0.0000000   0.8000000), wk =   0.0714286
        k(   10) = (   0.0000000   0.0000000   0.9000000), wk =   0.0714286
        k(   11) = (   0.0000000   0.0000000   1.0000000), wk =   0.0714286
        k(   12) = (   0.0000000   0.0000000   0.0000000), wk =   0.0714286
        k(   13) = (   0.0000000   0.1000000   0.1000000), wk =   0.0714286
        k(   14) = (   0.0000000   0.2000000   0.2000000), wk =   0.0714286
        k(   15) = (   0.0000000   0.3000000   0.3000000), wk =   0.0714286
        k(   16) = (   0.0000000   0.4000000   0.4000000), wk =   0.0714286
        k(   17) = (   0.0000000   0.5000000   0.5000000), wk =   0.0714286
        k(   18) = (   0.0000000   0.6000000   0.6000000), wk =   0.0714286
        k(   19) = (   0.0000000   0.7000000   0.7000000), wk =   0.0714286
        k(   20) = (   0.0000000   0.8000000   0.8000000), wk =   0.0714286
        k(   21) = (   0.0000000   0.9000000   0.9000000), wk =   0.0714286
        k(   22) = (   0.0000000   1.0000000   1.0000000), wk =   0.0714286
        k(   23) = (   0.0000000   0.0000000   0.0000000), wk =   0.0714286
        k(   24) = (   0.1000000   0.1000000   0.1000000), wk =   0.0714286
        k(   25) = (   0.2000000   0.2000000   0.2000000), wk =   0.0714286
        k(   26) = (   0.3000000   0.3000000   0.3000000), wk =   0.0714286
        k(   27) = (   0.4000000   0.4000000   0.4000000), wk =   0.0714286
        k(   28) = (   0.5000000   0.5000000   0.5000000), wk =   0.0714286

     Dense  grid:     6735 G-vectors     FFT dimensions: (  27,  27,  27)

     Smooth grid:     1243 G-vectors     FFT dimensions: (  15,  15,  15)

     Largest allocated arrays     est. size (Mb)     dimensions
        Kohn-Sham Wavefunctions         0.01 Mb     (      90,    8)
        NL pseudopotentials             0.02 Mb     (      90,   13)
        Each V/rho on FFT grid          0.16 Mb     (   10206)
        Each G-vector array             0.03 Mb     (    3368)
        G-vector shells                 0.00 Mb     (     118)
     Largest temporary arrays     est. size (Mb)     dimensions
        Each subspace H/S matrix        0.00 Mb     (       8,    8)
        Each <psi_i|beta_j> matrix      0.00 Mb     (      13,    8)

     The potential is recalculated from file :
     /home/nvarini/espresso_hdf5/espresso/tempdir/cu.save/charge-density.hdf5

     Starting wfc are    6 randomized atomic wfcs +    2 random wfc

     Band Structure Calculation
     CG style diagonalization

     ethr =  9.09E-09,  avg # of iterations = 19.3

     total cpu time spent up to now is        1.0 secs

     End of band structure calculation

          k = 0.0000 0.0000 0.0000 (   169 PWs)   bands (ev):

     4.9902  11.2011  11.2011  11.2011  12.0900  12.0900  38.8601  41.0130

          k = 0.0000 0.0000 0.1000 (   169 PWs)   bands (ev):

     5.1157  11.1627  11.2325  11.2325  12.0551  12.1044  38.3442  39.7386

          k = 0.0000 0.0000 0.2000 (   165 PWs)   bands (ev):

     5.4878  11.0516  11.3256  11.3256  11.9568  12.1460  37.3080  37.7399

          k = 0.0000 0.0000 0.3000 (   161 PWs)   bands (ev):

     6.0904  10.8804  11.4769  11.4769  11.8155  12.2110  35.7803  35.7803

          k = 0.0000 0.0000 0.4000 (   161 PWs)   bands (ev):

     6.8872  10.6673  11.6761  11.6787  11.6787  12.2933  33.9667  33.9667

          k = 0.0000 0.0000 0.5000 (   165 PWs)   bands (ev):

     7.7942  10.4347  11.6325  11.9192  11.9192  12.3849  32.3393  32.3393

          k = 0.0000 0.0000 0.6000 (   161 PWs)   bands (ev):

     8.6196  10.2059  11.8839  12.1805  12.1805  12.4771  30.7560  30.9299

          k = 0.0000 0.0000 0.7000 (   162 PWs)   bands (ev):

     9.1026  10.0027  12.4367  12.4367  12.5611  12.6832  27.8377  29.7723

          k = 0.0000 0.0000 0.8000 (   162 PWs)   bands (ev):

     9.2512   9.8435  12.6277  12.6564  12.6564  13.9730  25.1906  28.9042

          k = 0.0000 0.0000 0.9000 (   162 PWs)   bands (ev):

     9.2642   9.7422  12.6707  12.8063  12.8063  15.3575  23.0558  28.3636

          k = 0.0000 0.0000 1.0000 (   150 PWs)   bands (ev):

     9.2585   9.7078  12.6856  12.8599  12.8599  16.0644  22.1077  28.1796

          k = 0.0000 0.0000 0.0000 (   169 PWs)   bands (ev):

     4.9902  11.2011  11.2011  11.2011  12.0900  12.0900  38.8601  41.0130

          k = 0.0000 0.1000 0.1000 (   169 PWs)   bands (ev):

     5.2404  11.1421  11.2472  11.2593  12.0459  12.0975  37.2038  38.2087

          k = 0.0000 0.2000 0.2000 (   163 PWs)   bands (ev):

     5.9705  10.9901  11.3702  11.3796  11.9345  12.1709  33.7486  34.5125

          k = 0.0000 0.3000 0.3000 (   160 PWs)   bands (ev):

     7.1061  10.8092  11.3664  11.5817  11.8080  12.4565  30.4007  31.1635

          k = 0.0000 0.4000 0.4000 (   154 PWs)   bands (ev):

     8.4619  10.6804  11.1897  11.7278  11.8288  13.0620  27.3469  28.3088

          k = 0.0000 0.5000 0.5000 (   164 PWs)   bands (ev):

     9.6266  10.6773  10.8945  11.7426  12.0919  14.2038  24.5960  26.0247

          k = 0.0000 0.6000 0.6000 (   166 PWs)   bands (ev):

    10.1516  10.5384  10.8550  11.8730  12.3433  16.1947  22.1393  24.3503

          k = 0.0000 0.7000 0.7000 (   170 PWs)   bands (ev):

    10.0402  10.2351  11.2394  12.1021  12.5594  18.9478  19.9738  23.2571

          k = 0.0000 0.8000 0.8000 (   170 PWs)   bands (ev):

     9.6755   9.9822  11.8180  12.3732  12.7235  18.1225  22.0028  22.8455

          k = 0.0000 0.9000 0.9000 (   162 PWs)   bands (ev):

     9.3740   9.7813  12.4874  12.5977  12.8253  16.6906  22.1915  25.8664

          k = 0.0000 1.0000 1.0000 (   150 PWs)   bands (ev):

     9.2585   9.7078  12.6856  12.8599  12.8599  16.0644  22.1077  28.1796

          k = 0.0000 0.0000 0.0000 (   169 PWs)   bands (ev):

     4.9902  11.2011  11.2011  11.2011  12.0900  12.0900  38.8601  41.0130

          k = 0.1000 0.1000 0.1000 (   168 PWs)   bands (ev):

     5.3641  11.1241  11.2711  11.2711  12.0660  12.0660  35.6738  39.3797

          k = 0.2000 0.2000 0.2000 (   159 PWs)   bands (ev):

     6.4305  10.9738  11.3755  11.3755  12.0911  12.0911  30.1316  38.8250

          k = 0.3000 0.3000 0.3000 (   153 PWs)   bands (ev):

     7.9084  11.0661  11.3279  11.3279  12.3174  12.3174  25.0854  38.0367

          k = 0.4000 0.4000 0.4000 (   162 PWs)   bands (ev):

     8.9121  11.2161  11.2161  12.1712  12.5898  12.5898  20.8494  37.3033

          k = 0.5000 0.5000 0.5000 (   156 PWs)   bands (ev):

     9.1126  11.1667  11.1667  12.7052  12.7052  13.4643  18.6412  37.0214

     Writing output data file cu.save
 
     init_run     :      0.18s CPU      0.19s WALL (       1 calls)
     electrons    :      0.59s CPU      0.65s WALL (       1 calls)

     Called by init_run:
     wfcinit      :      0.00s CPU      0.00s WALL (       1 calls)
     potinit      :      0.00s CPU      0.01s WALL (       1 calls)

     Called by electrons:
     c_bands      :      0.59s CPU      0.65s WALL (       1 calls)
     v_of_rho     :      0.00s CPU      0.00s WALL (       1 calls)
     newd         :      0.00s CPU      0.01s WALL (       1 calls)

     Called by c_bands:
     init_us_2    :      0.00s CPU      0.00s WALL (      28 calls)
     ccgdiagg     :      0.54s CPU      0.60s WALL (      67 calls)
     wfcrot       :      0.04s CPU      0.05s WALL (      67 calls)

     Called by sum_band:

     Called by *cgdiagg:
     h_psi        :      0.37s CPU      0.41s WALL (    4016 calls)
     s_psi        :      0.04s CPU      0.04s WALL (    7965 calls)
     cdiaghg      :      0.00s CPU      0.00s WALL (      67 calls)

     Called by h_psi:
     add_vuspsi   :      0.02s CPU      0.02s WALL (    4016 calls)
     h_1psi       :      0.37s CPU      0.41s WALL (    3949 calls)

     General routines
     calbec       :      0.06s CPU      0.07s WALL (    7965 calls)
     fft          :      0.00s CPU      0.00s WALL (       5 calls)
     ffts         :      0.00s CPU      0.00s WALL (       1 calls)
     fftw         :      0.24s CPU      0.26s WALL (    8970 calls)
     interpolate  :      0.00s CPU      0.00s WALL (       1 calls)
     davcio       :      0.00s CPU      0.00s WALL (      28 calls)
 
     Parallel routines
     fft_scatter  :      0.07s CPU      0.07s WALL (    8976 calls)
 
     PWSCF        :     1.09s CPU         1.15s WALL

 
   This run was terminated on:  11:19: 7  15Jun2016            

=------------------------------------------------------------------------------=
   JOB DONE.
=------------------------------------------------------------------------------=
