
     Program PWSCF v.5.3.0 (svn rev. 12078) starts on 28Jan2016 at 10:29:56 

     This program is part of the open-source Quantum ESPRESSO suite
     for quantum simulation of materials; please cite
         "P. Giannozzi et al., J. Phys.:Condens. Matter 21 395502 (2009);
          URL http://www.quantum-espresso.org", 
     in publications or presentations arising from this work. More details at
     http://www.quantum-espresso.org/quote

     Parallel version (MPI), running on     2 processors
     R & G space division:  proc/nbgrp/npool/nimage =       2
     Waiting for input...
     Reading input from standard input
     Message from routine read_cards :
     DEPRECATED: no units specified in ATOMIC_POSITIONS card
     Message from routine read_cards :
     ATOMIC_POSITIONS: units set to alat

     Current dimensions of program PWSCF are:
     Max number of different atomic species (ntypx) = 10
     Max number of k-points (npk) =  40000
     Max angular momentum in pseudopotentials (lmaxx) =  3

     Atomic positions and unit cell read from directory:
     /home/nvarini/espresso_hdf5/espresso/tempdir/cu.save/
 
               file Cu.pz-d-rrkjus.UPF: wavefunction(s)  3D renormalized

     Subspace diagonalization in iterative solution of the eigenvalue problem:
     a serial algorithm will be used

 
     Parallelization info
     --------------------
     sticks:   dense  smooth     PW     G-vecs:    dense   smooth      PW
     Min         237      75     30                 3367      616     165
     Max         238      76     31                 3368      627     166
     Sum         475     151     61                 6735     1243     331
 


     bravais-lattice index     =            2
     lattice parameter (alat)  =       6.7300  a.u.
     unit-cell volume          =      76.2053 (a.u.)^3
     number of atoms/cell      =            1
     number of atomic types    =            1
     number of electrons       =        11.00
     number of Kohn-Sham states=            8
     kinetic-energy cutoff     =      25.0000  Ry
     charge density cutoff     =     300.0000  Ry
     Exchange-correlation      =  SLA  PZ   NOGX NOGC ( 1  1  0  0 0 0)

     celldm(1)=   6.730000  celldm(2)=   0.000000  celldm(3)=   0.000000
     celldm(4)=   0.000000  celldm(5)=   0.000000  celldm(6)=   0.000000

     crystal axes: (cart. coord. in units of alat)
               a(1) = (  -0.500000   0.000000   0.500000 )  
               a(2) = (   0.000000   0.500000   0.500000 )  
               a(3) = (  -0.500000   0.500000   0.000000 )  

     reciprocal axes: (cart. coord. in units 2 pi/alat)
               b(1) = ( -1.000000 -1.000000  1.000000 )  
               b(2) = (  1.000000  1.000000  1.000000 )  
               b(3) = ( -1.000000  1.000000 -1.000000 )  


     PseudoPot. # 1 for Cu read from file:
     /home/nvarini/espresso_hdf5/espresso/pseudo/Cu.pz-d-rrkjus.UPF
     MD5 check sum: fd38ae683e239c95a66f426e1f8e5fc7
     Pseudo is Ultrasoft, Zval = 11.0
     Generated by new atomic code, or converted to UPF format
     Using radial grid of  899 points,  3 beta functions with: 
                l(1) =   2
                l(2) =   2
                l(3) =   1
     Q(r) pseudized with 0 coefficients 


     atomic species   valence    mass     pseudopotential
        Cu            11.00    63.55000     Cu( 1.00)

     48 Sym. Ops., with inversion, found



   Cartesian axes

     site n.     atom                  positions (alat units)
         1           Cu  tau(   1) = (   0.0000000   0.0000000   0.0000000  )

     number of k points=    28
                       cart. coord. in units 2pi/alat
        k(    1) = (   0.0000000   0.0000000   0.0000000), wk =   0.0714286
        k(    2) = (   0.0000000   0.0000000   0.1000000), wk =   0.0714286
        k(    3) = (   0.0000000   0.0000000   0.2000000), wk =   0.0714286
        k(    4) = (   0.0000000   0.0000000   0.3000000), wk =   0.0714286
        k(    5) = (   0.0000000   0.0000000   0.4000000), wk =   0.0714286
        k(    6) = (   0.0000000   0.0000000   0.5000000), wk =   0.0714286
        k(    7) = (   0.0000000   0.0000000   0.6000000), wk =   0.0714286
        k(    8) = (   0.0000000   0.0000000   0.7000000), wk =   0.0714286
        k(    9) = (   0.0000000   0.0000000   0.8000000), wk =   0.0714286
        k(   10) = (   0.0000000   0.0000000   0.9000000), wk =   0.0714286
        k(   11) = (   0.0000000   0.0000000   1.0000000), wk =   0.0714286
        k(   12) = (   0.0000000   0.0000000   0.0000000), wk =   0.0714286
        k(   13) = (   0.0000000   0.1000000   0.1000000), wk =   0.0714286
        k(   14) = (   0.0000000   0.2000000   0.2000000), wk =   0.0714286
        k(   15) = (   0.0000000   0.3000000   0.3000000), wk =   0.0714286
        k(   16) = (   0.0000000   0.4000000   0.4000000), wk =   0.0714286
        k(   17) = (   0.0000000   0.5000000   0.5000000), wk =   0.0714286
        k(   18) = (   0.0000000   0.6000000   0.6000000), wk =   0.0714286
        k(   19) = (   0.0000000   0.7000000   0.7000000), wk =   0.0714286
        k(   20) = (   0.0000000   0.8000000   0.8000000), wk =   0.0714286
        k(   21) = (   0.0000000   0.9000000   0.9000000), wk =   0.0714286
        k(   22) = (   0.0000000   1.0000000   1.0000000), wk =   0.0714286
        k(   23) = (   0.0000000   0.0000000   0.0000000), wk =   0.0714286
        k(   24) = (   0.1000000   0.1000000   0.1000000), wk =   0.0714286
        k(   25) = (   0.2000000   0.2000000   0.2000000), wk =   0.0714286
        k(   26) = (   0.3000000   0.3000000   0.3000000), wk =   0.0714286
        k(   27) = (   0.4000000   0.4000000   0.4000000), wk =   0.0714286
        k(   28) = (   0.5000000   0.5000000   0.5000000), wk =   0.0714286

     Dense  grid:     6735 G-vectors     FFT dimensions: (  27,  27,  27)

     Smooth grid:     1243 G-vectors     FFT dimensions: (  15,  15,  15)

     Largest allocated arrays     est. size (Mb)     dimensions
        Kohn-Sham Wavefunctions         0.01 Mb     (      90,    8)
        NL pseudopotentials             0.02 Mb     (      90,   13)
        Each V/rho on FFT grid          0.16 Mb     (   10206)
        Each G-vector array             0.03 Mb     (    3368)
        G-vector shells                 0.00 Mb     (     118)
     Largest temporary arrays     est. size (Mb)     dimensions
        Auxiliary wavefunctions         0.04 Mb     (      90,   32)
        Each subspace H/S matrix        0.02 Mb     (      32,   32)
        Each <psi_i|beta_j> matrix      0.00 Mb     (      13,    8)

     The potential is recalculated from file :
     /home/nvarini/espresso_hdf5/espresso/tempdir/cu.save/charge-density.dat

     Starting wfc are    6 randomized atomic wfcs +    2 random wfc

     Band Structure Calculation
     Davidson diagonalization with overlap

     ethr =  9.09E-09,  avg # of iterations = 12.8

     total cpu time spent up to now is        0.7 secs

     End of band structure calculation

          k = 0.0000 0.0000 0.0000 (   169 PWs)   bands (ev):

     5.0396  12.6841  12.6841  12.6841  13.6807  13.6807  38.7948  41.1104

          k = 0.0000 0.0000 0.1000 (   169 PWs)   bands (ev):

     5.1652  12.6390  12.7179  12.7179  13.6398  13.6965  38.3493  39.9163

          k = 0.0000 0.0000 0.2000 (   165 PWs)   bands (ev):

     5.5378  12.5089  12.8182  12.8182  13.5232  13.7426  37.4230  37.9645

          k = 0.0000 0.0000 0.3000 (   161 PWs)   bands (ev):

     6.1441  12.3090  12.9821  12.9821  13.3489  13.8146  36.0198  36.0198

          k = 0.0000 0.0000 0.4000 (   161 PWs)   bands (ev):

     6.9557  12.0610  13.1545  13.2024  13.2024  13.9057  34.2028  34.2028

          k = 0.0000 0.0000 0.5000 (   165 PWs)   bands (ev):

     7.9151  11.7917  13.0083  13.4677  13.4677  14.0073  32.5588  32.5588

          k = 0.0000 0.0000 0.6000 (   161 PWs)   bands (ev):

     8.9000  11.5280  13.0402  13.7596  13.7596  14.1097  31.0589  31.1226

          k = 0.0000 0.0000 0.7000 (   162 PWs)   bands (ev):

     9.6851  11.2949  13.4646  14.0499  14.0499  14.2030  28.2239  29.9323

          k = 0.0000 0.0000 0.8000 (   162 PWs)   bands (ev):

    10.0965  11.1128  14.2771  14.3026  14.3026  14.3977  25.6687  29.0314

          k = 0.0000 0.0000 0.9000 (   162 PWs)   bands (ev):

    10.2348  10.9974  14.3248  14.4771  14.4771  15.5297  23.6569  28.4659

          k = 0.0000 0.0000 1.0000 (   150 PWs)   bands (ev):

    10.2628  10.9582  14.3414  14.5401  14.5401  16.1097  22.8004  28.2726

          k = 0.0000 0.0000 0.0000 (   169 PWs)   bands (ev):

     5.0396  12.6841  12.6841  12.6841  13.6807  13.6807  38.7948  41.1104

          k = 0.0000 0.1000 0.1000 (   169 PWs)   bands (ev):

     5.2900  12.6111  12.7356  12.7462  13.6288  13.6878  37.3417  38.3702

          k = 0.0000 0.2000 0.2000 (   163 PWs)   bands (ev):

     6.0237  12.4215  12.8586  12.8837  13.4976  13.7640  34.0315  34.7068

          k = 0.0000 0.3000 0.3000 (   160 PWs)   bands (ev):

     7.1813  12.1893  12.8332  13.1098  13.3476  14.0519  30.7620  31.3915

          k = 0.0000 0.4000 0.4000 (   154 PWs)   bands (ev):

     8.6290  12.0069  12.6043  13.2496  13.3864  14.6002  27.7656  28.5785

          k = 0.0000 0.5000 0.5000 (   164 PWs)   bands (ev):

    10.0704  11.9569  12.2263  13.2593  13.6811  15.4923  25.0571  26.3521

          k = 0.0000 0.6000 0.6000 (   166 PWs)   bands (ev):

    11.0238  11.7521  12.1029  13.4017  13.9626  17.0687  22.6262  24.7582

          k = 0.0000 0.7000 0.7000 (   170 PWs)   bands (ev):

    11.2355  11.2959  12.4810  13.6604  14.2044  19.5119  20.4623  23.7584

          k = 0.0000 0.8000 0.8000 (   170 PWs)   bands (ev):

    10.7498  11.1912  13.1014  13.9730  14.3877  18.5662  22.4873  23.3347

          k = 0.0000 0.9000 0.9000 (   162 PWs)   bands (ev):

    10.3939  11.0267  13.9230  14.2369  14.5014  16.9807  22.8649  26.0929

          k = 0.0000 1.0000 1.0000 (   150 PWs)   bands (ev):

    10.2628  10.9582  14.3414  14.5401  14.5401  16.1097  22.8004  28.2726

          k = 0.0000 0.0000 0.0000 (   169 PWs)   bands (ev):

     5.0396  12.6841  12.6841  12.6841  13.6807  13.6807  38.7948  41.1104

          k = 0.1000 0.1000 0.1000 (   168 PWs)   bands (ev):

     5.4140  12.5850  12.7610  12.7610  13.6512  13.6512  35.8772  39.3582

          k = 0.2000 0.2000 0.2000 (   159 PWs)   bands (ev):

     6.4927  12.3601  12.8737  12.8737  13.6747  13.6747  30.4468  38.8145

          k = 0.3000 0.3000 0.3000 (   153 PWs)   bands (ev):

     8.0822  12.2338  12.8140  12.8140  13.9271  13.9271  25.5160  37.9499

          k = 0.4000 0.4000 0.4000 (   162 PWs)   bands (ev):

     9.5429  12.6838  12.6838  12.6849  14.2345  14.2345  21.4765  37.1787

          k = 0.5000 0.5000 0.5000 (   156 PWs)   bands (ev):

    10.0131  12.6267  12.6267  13.4502  14.3654  14.3654  19.5255  36.8828

     Writing output data file cu.save
 
     init_run     :      0.18s CPU      0.20s WALL (       1 calls)
     electrons    :      0.27s CPU      0.28s WALL (       1 calls)

     Called by init_run:
     wfcinit      :      0.00s CPU      0.00s WALL (       1 calls)
     potinit      :      0.00s CPU      0.00s WALL (       1 calls)

     Called by electrons:
     c_bands      :      0.27s CPU      0.28s WALL (       1 calls)
     v_of_rho     :      0.00s CPU      0.00s WALL (       1 calls)
     newd         :      0.00s CPU      0.01s WALL (       1 calls)

     Called by c_bands:
     init_us_2    :      0.00s CPU      0.00s WALL (      28 calls)
     cegterg      :      0.24s CPU      0.25s WALL (      32 calls)

     Called by sum_band:

     Called by *egterg:
     h_psi        :      0.13s CPU      0.15s WALL (     419 calls)
     s_psi        :      0.00s CPU      0.00s WALL (     419 calls)
     g_psi        :      0.00s CPU      0.00s WALL (     359 calls)
     cdiaghg      :      0.11s CPU      0.09s WALL (     387 calls)

     Called by h_psi:
     add_vuspsi   :      0.01s CPU      0.00s WALL (     419 calls)

     General routines
     calbec       :      0.01s CPU      0.01s WALL (     419 calls)
     fft          :      0.00s CPU      0.00s WALL (       5 calls)
     ffts         :      0.00s CPU      0.00s WALL (       1 calls)
     fftw         :      0.10s CPU      0.11s WALL (    3764 calls)
     interpolate  :      0.00s CPU      0.00s WALL (       1 calls)
     davcio       :      0.00s CPU      0.00s WALL (      28 calls)
 
     Parallel routines
     fft_scatter  :      0.02s CPU      0.03s WALL (    3770 calls)
 
     PWSCF        :     0.73s CPU         0.76s WALL

 
   This run was terminated on:  10:29:57  28Jan2016            

=------------------------------------------------------------------------------=
   JOB DONE.
=------------------------------------------------------------------------------=
