
     Program PWSCF v.5.2.1 (svn rev. 11917) starts on 21Dec2015 at 16:31:35 

     This program is part of the open-source Quantum ESPRESSO suite
     for quantum simulation of materials; please cite
         "P. Giannozzi et al., J. Phys.:Condens. Matter 21 395502 (2009);
          URL http://www.quantum-espresso.org", 
     in publications or presentations arising from this work. More details at
     http://www.quantum-espresso.org/quote

     Parallel version (MPI & OpenMP), running on       8 processor cores
     Number of MPI processes:                 2
     Threads/MPI process:                     4
     R & G space division:  proc/nbgrp/npool/nimage =       2
     Waiting for input...
     Reading input from standard input
     Message from routine read_cards :
     DEPRECATED: no units specified in ATOMIC_POSITIONS card
     Message from routine read_cards :
     ATOMIC_POSITIONS: units set to alat

     Current dimensions of program PWSCF are:
     Max number of different atomic species (ntypx) = 10
     Max number of k-points (npk) =  40000
     Max angular momentum in pseudopotentials (lmaxx) =  3
               file Cu.pz-d-rrkjus.UPF: wavefunction(s)  3D renormalized

     Subspace diagonalization in iterative solution of the eigenvalue problem:
     a serial algorithm will be used

 
     Parallelization info
     --------------------
     sticks:   dense  smooth     PW     G-vecs:    dense   smooth      PW
     Min         237      75     30                 3367      621     153
     Max         238      76     31                 3368      622     154
     Sum         475     151     61                 6735     1243     307
 


     bravais-lattice index     =            2
     lattice parameter (alat)  =       6.7300  a.u.
     unit-cell volume          =      76.2053 (a.u.)^3
     number of atoms/cell      =            1
     number of atomic types    =            1
     number of electrons       =        11.00
     number of Kohn-Sham states=           10
     kinetic-energy cutoff     =      25.0000  Ry
     charge density cutoff     =     300.0000  Ry
     convergence threshold     =      1.0E-08
     mixing beta               =       0.7000
     number of iterations used =            8  plain     mixing
     Exchange-correlation      =  SLA  PZ   NOGX NOGC ( 1  1  0  0 0 0)

     celldm(1)=   6.730000  celldm(2)=   0.000000  celldm(3)=   0.000000
     celldm(4)=   0.000000  celldm(5)=   0.000000  celldm(6)=   0.000000

     crystal axes: (cart. coord. in units of alat)
               a(1) = (  -0.500000   0.000000   0.500000 )  
               a(2) = (   0.000000   0.500000   0.500000 )  
               a(3) = (  -0.500000   0.500000   0.000000 )  

     reciprocal axes: (cart. coord. in units 2 pi/alat)
               b(1) = ( -1.000000 -1.000000  1.000000 )  
               b(2) = (  1.000000  1.000000  1.000000 )  
               b(3) = ( -1.000000  1.000000 -1.000000 )  


     PseudoPot. # 1 for Cu read from file:
     /home/nvarini/espresso_hdf5/espresso/pseudo/Cu.pz-d-rrkjus.UPF
     MD5 check sum: fd38ae683e239c95a66f426e1f8e5fc7
     Pseudo is Ultrasoft, Zval = 11.0
     Generated by new atomic code, or converted to UPF format
     Using radial grid of  899 points,  3 beta functions with: 
                l(1) =   2
                l(2) =   2
                l(3) =   1
     Q(r) pseudized with 0 coefficients 


     atomic species   valence    mass     pseudopotential
        Cu            11.00    63.55000     Cu( 1.00)

     48 Sym. Ops., with inversion, found



   Cartesian axes

     site n.     atom                  positions (alat units)
         1           Cu  tau(   1) = (   0.0000000   0.0000000   0.0000000  )

     number of k points=    29  gaussian smearing, width (Ry)=  0.0200
                       cart. coord. in units 2pi/alat
        k(    1) = (   0.0000000   0.0000000   0.0000000), wk =   0.0039062
        k(    2) = (  -0.1250000   0.1250000  -0.1250000), wk =   0.0312500
        k(    3) = (  -0.2500000   0.2500000  -0.2500000), wk =   0.0312500
        k(    4) = (  -0.3750000   0.3750000  -0.3750000), wk =   0.0312500
        k(    5) = (   0.5000000  -0.5000000   0.5000000), wk =   0.0156250
        k(    6) = (   0.0000000   0.2500000   0.0000000), wk =   0.0234375
        k(    7) = (  -0.1250000   0.3750000  -0.1250000), wk =   0.0937500
        k(    8) = (  -0.2500000   0.5000000  -0.2500000), wk =   0.0937500
        k(    9) = (   0.6250000  -0.3750000   0.6250000), wk =   0.0937500
        k(   10) = (   0.5000000  -0.2500000   0.5000000), wk =   0.0937500
        k(   11) = (   0.3750000  -0.1250000   0.3750000), wk =   0.0937500
        k(   12) = (   0.2500000   0.0000000   0.2500000), wk =   0.0468750
        k(   13) = (   0.0000000   0.5000000   0.0000000), wk =   0.0234375
        k(   14) = (  -0.1250000   0.6250000  -0.1250000), wk =   0.0937500
        k(   15) = (   0.7500000  -0.2500000   0.7500000), wk =   0.0937500
        k(   16) = (   0.6250000  -0.1250000   0.6250000), wk =   0.0937500
        k(   17) = (   0.5000000   0.0000000   0.5000000), wk =   0.0468750
        k(   18) = (   0.0000000   0.7500000   0.0000000), wk =   0.0234375
        k(   19) = (   0.8750000  -0.1250000   0.8750000), wk =   0.0937500
        k(   20) = (   0.7500000   0.0000000   0.7500000), wk =   0.0468750
        k(   21) = (   0.0000000  -1.0000000   0.0000000), wk =   0.0117188
        k(   22) = (  -0.2500000   0.5000000   0.0000000), wk =   0.0937500
        k(   23) = (   0.6250000  -0.3750000   0.8750000), wk =   0.1875000
        k(   24) = (   0.5000000  -0.2500000   0.7500000), wk =   0.0937500
        k(   25) = (   0.7500000  -0.2500000   1.0000000), wk =   0.0937500
        k(   26) = (   0.6250000  -0.1250000   0.8750000), wk =   0.1875000
        k(   27) = (   0.5000000   0.0000000   0.7500000), wk =   0.0937500
        k(   28) = (  -0.2500000  -1.0000000   0.0000000), wk =   0.0468750
        k(   29) = (  -0.5000000  -1.0000000   0.0000000), wk =   0.0234375

     Dense  grid:     6735 G-vectors     FFT dimensions: (  27,  27,  27)

     Smooth grid:     1243 G-vectors     FFT dimensions: (  15,  15,  15)

     Largest allocated arrays     est. size (Mb)     dimensions
        Kohn-Sham Wavefunctions         0.01 Mb     (      86,   10)
        NL pseudopotentials             0.02 Mb     (      86,   13)
        Each V/rho on FFT grid          0.16 Mb     (   10206)
        Each G-vector array             0.03 Mb     (    3368)
        G-vector shells                 0.00 Mb     (     118)
     Largest temporary arrays     est. size (Mb)     dimensions
        Each subspace H/S matrix        0.00 Mb     (      10,   10)
        Each <psi_i|beta_j> matrix      0.00 Mb     (      13,   10)
        Arrays for rho mixing           1.25 Mb     (   10206,    8)

     Initial potential from superposition of free atoms

     starting charge   10.99968, renormalised to   11.00000
     Starting wfc are    6 randomized atomic wfcs +    4 random wfc

     total cpu time spent up to now is        0.3 secs

     per-process dynamical memory:     4.2 Mb

     Self-consistent Calculation

     iteration #  1     ecut=    25.00 Ry     beta=0.70
     CG style diagonalization
     ethr =  1.00E-02,  avg # of iterations =  4.9

     total cpu time spent up to now is        0.5 secs

     total energy              =     -87.74396551 Ry
     Harris-Foulkes estimate   =     -87.90102053 Ry
     estimated scf accuracy    <       0.21321438 Ry

     iteration #  2     ecut=    25.00 Ry     beta=0.70
     CG style diagonalization
     ethr =  1.94E-03,  avg # of iterations =  3.5

     total cpu time spent up to now is        0.7 secs

     total energy              =     -87.81404431 Ry
     Harris-Foulkes estimate   =     -87.89054799 Ry
     estimated scf accuracy    <       0.15057180 Ry

     iteration #  3     ecut=    25.00 Ry     beta=0.70
     CG style diagonalization
     ethr =  1.37E-03,  avg # of iterations =  3.0

     total cpu time spent up to now is        0.9 secs

     total energy              =     -87.84089613 Ry
     Harris-Foulkes estimate   =     -87.84096890 Ry
     estimated scf accuracy    <       0.00015316 Ry

     iteration #  4     ecut=    25.00 Ry     beta=0.70
     CG style diagonalization
     c_bands:  1 eigenvalues not converged
     ethr =  1.39E-06,  avg # of iterations =  5.7

     total cpu time spent up to now is        1.2 secs

     total energy              =     -87.84116366 Ry
     Harris-Foulkes estimate   =     -87.84119113 Ry
     estimated scf accuracy    <       0.00005869 Ry

     iteration #  5     ecut=    25.00 Ry     beta=0.70
     CG style diagonalization
     ethr =  5.34E-07,  avg # of iterations =  3.1

     total cpu time spent up to now is        1.3 secs

     total energy              =     -87.84117656 Ry
     Harris-Foulkes estimate   =     -87.84117656 Ry
     estimated scf accuracy    <       0.00000011 Ry

     iteration #  6     ecut=    25.00 Ry     beta=0.70
     CG style diagonalization
     ethr =  9.94E-10,  avg # of iterations =  3.7

     total cpu time spent up to now is        1.5 secs

     total energy              =     -87.84117670 Ry
     Harris-Foulkes estimate   =     -87.84117681 Ry
     estimated scf accuracy    <       0.00000024 Ry

     iteration #  7     ecut=    25.00 Ry     beta=0.70
     CG style diagonalization
     ethr =  9.94E-10,  avg # of iterations =  3.2

     total cpu time spent up to now is        1.7 secs

     End of self-consistent calculation

          k = 0.0000 0.0000 0.0000 (   169 PWs)   bands (ev):

     4.9902  11.2012  11.2012  11.2012  12.0901  12.0901  38.8601  41.0130
    41.0130  41.0131

          k =-0.1250 0.1250-0.1250 (   165 PWs)   bands (ev):

     5.5709  11.0866  11.3029  11.3029  12.0597  12.0597  34.2711  39.2720
    39.7082  39.7082

          k =-0.2500 0.2500-0.2500 (   156 PWs)   bands (ev):

     7.1553  10.9527  11.3712  11.3712  12.1823  12.1823  27.5276  38.3732
    38.3732  38.4661

          k =-0.3750 0.3750-0.3750 (   159 PWs)   bands (ev):

     8.7581  11.2415  11.2415  11.7718  12.5306  12.5306  21.8040  37.4538
    37.7366  37.7366

          k = 0.5000-0.5000 0.5000 (   156 PWs)   bands (ev):

     9.1126  11.1667  11.1667  12.7053  12.7053  13.4643  18.6413  37.0214
    37.6108  37.6108

          k = 0.0000 0.2500 0.0000 (   165 PWs)   bands (ev):

     5.7619  10.9725  11.3943  11.3943  11.8895  12.1760  36.7454  36.7454
    36.7670  38.6741

          k =-0.1250 0.3750-0.1250 (   160 PWs)   bands (ev):

     7.0143  10.7492  11.4316  11.5524  11.9731  12.3080  30.0779  34.8354
    36.4458  38.9411

          k =-0.2500 0.5000-0.2500 (   158 PWs)   bands (ev):

     8.7287  10.8275  11.1808  11.4889  12.5932  12.8058  23.9426  34.0858
    34.9379  36.6367

          k = 0.6250-0.3750 0.6250 (   163 PWs)   bands (ev):

     9.3833  10.9634  11.3698  11.6201  12.7174  14.6390  19.3208  32.8135
    34.6288  36.4059

          k = 0.5000-0.2500 0.5000 (   161 PWs)   bands (ev):

     9.3118  11.0367  11.3690  11.4825  12.4843  14.0536  20.5832  31.5887
    36.5314  37.3111

          k = 0.3750-0.1250 0.3750 (   159 PWs)   bands (ev):

     8.2135  10.8072  11.2558  11.5071  12.0312  12.8220  25.8862  31.4947
    39.3197  39.7083

          k = 0.2500 0.0000 0.2500 (   160 PWs)   bands (ev):

     6.4954  10.8983  11.3915  11.4735  11.8694  12.2785  32.0409  32.7822
    41.5265  42.4819

          k = 0.0000 0.5000 0.0000 (   165 PWs)   bands (ev):

     7.7943  10.4348  11.6326  11.9192  11.9192  12.3850  32.3393  32.3393
    33.7599  34.5441

          k =-0.1250 0.6250-0.1250 (   162 PWs)   bands (ev):

     9.0227  10.2343  11.4502  12.0191  12.6217  12.9853  26.9779  30.3531
    31.0981  35.0365

          k = 0.7500-0.2500 0.7500 (   158 PWs)   bands (ev):

     9.7668  10.3289  11.2646  11.8944  12.7490  15.5294  21.6001  27.6744
    31.3015  35.1326

          k = 0.6250-0.1250 0.6250 (   162 PWs)   bands (ev):

    10.0183  10.5264  11.0684  11.7897  12.5063  16.7738  20.0922  26.0416
    32.9711  35.8417

          k = 0.5000 0.0000 0.5000 (   164 PWs)   bands (ev):

     9.6266  10.6774  10.8946  11.7427  12.0920  14.2038  24.5960  26.0247
    35.8985  37.3877

          k = 0.0000 0.7500 0.0000 (   162 PWs)   bands (ev):

     9.2057   9.9167  12.5533  12.5533  12.5971  13.2865  26.4700  29.2996
    29.2996  33.3064

          k = 0.8750-0.1250 0.8750 (   164 PWs)   bands (ev):

     9.4501   9.8714  12.2019  12.4696  12.7943  15.9126  23.7213  25.2517
    29.0129  34.1879

          k = 0.7500 0.0000 0.7500 (   168 PWs)   bands (ev):

     9.8607  10.1091  11.5076  12.2376  12.6488  19.0055  20.5140  22.9124
    30.3242  34.7826

          k = 0.0000-1.0000 0.0000 (   150 PWs)   bands (ev):

     9.2585   9.7079  12.6856  12.8600  12.8600  16.0645  22.1077  28.1796
    28.1796  32.9218

          k =-0.2500 0.5000 0.0000 (   156 PWs)   bands (ev):

     8.3838  10.5246  11.2022  11.9284  11.9816  12.8599  28.3780  29.1672
    34.7023  39.7246

          k = 0.6250-0.3750 0.8750 (   161 PWs)   bands (ev):

     9.6522  10.6050  10.9252  11.7991  12.4586  14.3780  22.9148  28.5911
    31.6503  39.6657

          k = 0.5000-0.2500 0.7500 (   164 PWs)   bands (ev):

     9.8898  10.5878  11.1596  11.6869  12.6466  16.6898  19.1412  29.3143
    29.7906  39.3669

          k = 0.7500-0.2500 1.0000 (   166 PWs)   bands (ev):

     9.6141  10.1147  11.4163  12.3919  12.5494  14.7884  25.8700  26.6503
    27.2659  37.8987

          k = 0.6250-0.1250 0.8750 (   161 PWs)   bands (ev):

     9.9928  10.2651  11.1241  12.1237  12.7325  18.0166  21.2249  24.7934
    27.1016  39.0184

          k = 0.5000 0.0000 0.7500 (   158 PWs)   bands (ev):

    10.2724  10.4558  10.7012  12.0026  12.5535  17.1250  21.9645  24.2064
    28.8740  40.2128

          k =-0.2500-1.0000 0.0000 (   164 PWs)   bands (ev):

     9.5931   9.9450  11.8839  12.4221  12.8602  17.7229  22.3900  24.9290
    26.0238  37.2948

          k =-0.5000-1.0000 0.0000 (   156 PWs)   bands (ev):

    10.0285  10.6779  10.6779  12.0571  12.8606  20.9509  20.9509  23.1324
    24.0538  44.6536

     the Fermi energy is    14.4957 ev

!    total energy              =     -87.84117675 Ry
     Harris-Foulkes estimate   =     -87.84117675 Ry
     estimated scf accuracy    <          8.5E-11 Ry

     The total energy is the sum of the following terms:

     one-electron contribution =     -10.24214005 Ry
     hartree contribution      =      18.89089376 Ry
     xc contribution           =     -14.05622328 Ry
     ewald contribution        =     -82.43214130 Ry
     smearing contrib. (-TS)   =      -0.00156588 Ry

     convergence has been achieved in   7 iterations

     Forces acting on atoms (Ry/au):

     atom    1 type  1   force =     0.00000000    0.00000000    0.00000000

     Total force =     0.000000     Total SCF correction =     0.000000


     entering subroutine stress ...

          total   stress  (Ry/bohr**3)                   (kbar)     P=  -11.32
  -0.00007695  -0.00000000  -0.00000000        -11.32     -0.00     -0.00
  -0.00000000  -0.00007695   0.00000000         -0.00    -11.32      0.00
  -0.00000000   0.00000000  -0.00007695         -0.00      0.00    -11.32


     Writing output data file cu.save
 
     init_run     :      0.81s CPU      0.22s WALL (       1 calls)
     electrons    :      5.44s CPU      1.46s WALL (       1 calls)
     forces       :      0.04s CPU      0.01s WALL (       1 calls)
     stress       :      0.16s CPU      0.04s WALL (       1 calls)

     Called by init_run:
     wfcinit      :      0.12s CPU      0.03s WALL (       1 calls)
     potinit      :      0.01s CPU      0.00s WALL (       1 calls)

     Called by electrons:
     c_bands      :      4.76s CPU      1.28s WALL (       7 calls)
     sum_band     :      0.56s CPU      0.15s WALL (       7 calls)
     v_of_rho     :      0.01s CPU      0.00s WALL (       8 calls)
     newd         :      0.08s CPU      0.02s WALL (       8 calls)
     mix_rho      :      0.01s CPU      0.00s WALL (       7 calls)

     Called by c_bands:
     init_us_2    :      0.06s CPU      0.02s WALL (     493 calls)
     ccgdiagg     :      4.01s CPU      1.08s WALL (     203 calls)
     wfcrot       :      0.80s CPU      0.21s WALL (     203 calls)

     Called by sum_band:
     sum_band:bec :      0.01s CPU      0.00s WALL (     203 calls)
     addusdens    :      0.08s CPU      0.02s WALL (       7 calls)

     Called by *cgdiagg:
     h_psi        :      3.28s CPU      0.88s WALL (    6275 calls)
     s_psi        :      0.24s CPU      0.07s WALL (   12347 calls)
     cdiaghg      :      0.05s CPU      0.01s WALL (     203 calls)

     Called by h_psi:
     add_vuspsi   :      0.17s CPU      0.05s WALL (    6275 calls)
     h_1psi       :      2.87s CPU      0.78s WALL (    6072 calls)

     General routines
     calbec       :      0.53s CPU      0.15s WALL (   12695 calls)
     fft          :      0.03s CPU      0.01s WALL (      73 calls)
     ffts         :      0.00s CPU      0.00s WALL (      15 calls)
     fftw         :      2.27s CPU      0.61s WALL (   18234 calls)
     interpolate  :      0.01s CPU      0.00s WALL (      15 calls)
     davcio       :      0.00s CPU      0.00s WALL (      29 calls)
 
     Parallel routines
     fft_scatter  :      0.70s CPU      0.19s WALL (   18322 calls)
 
     PWSCF        :     6.66s CPU         1.81s WALL

 
   This run was terminated on:  16:31:37  21Dec2015            

=------------------------------------------------------------------------------=
   JOB DONE.
=------------------------------------------------------------------------------=
