
     Program PWSCF v.5.3.0 (svn rev. 12078) starts on 28Jan2016 at 10:30: 8 

     This program is part of the open-source Quantum ESPRESSO suite
     for quantum simulation of materials; please cite
         "P. Giannozzi et al., J. Phys.:Condens. Matter 21 395502 (2009);
          URL http://www.quantum-espresso.org", 
     in publications or presentations arising from this work. More details at
     http://www.quantum-espresso.org/quote

     Parallel version (MPI), running on     2 processors
     R & G space division:  proc/nbgrp/npool/nimage =       2
     Waiting for input...
     Reading input from standard input
     Message from routine read_cards :
     DEPRECATED: no units specified in ATOMIC_POSITIONS card
     Message from routine read_cards :
     ATOMIC_POSITIONS: units set to alat

     Current dimensions of program PWSCF are:
     Max number of different atomic species (ntypx) = 10
     Max number of k-points (npk) =  40000
     Max angular momentum in pseudopotentials (lmaxx) =  3
               file Cu.pz-d-rrkjus.UPF: wavefunction(s)  3D renormalized

     Subspace diagonalization in iterative solution of the eigenvalue problem:
     a serial algorithm will be used

 
     Parallelization info
     --------------------
     sticks:   dense  smooth     PW     G-vecs:    dense   smooth      PW
     Min         237      75     30                 3367      621     153
     Max         238      76     31                 3368      622     154
     Sum         475     151     61                 6735     1243     307
 


     bravais-lattice index     =            2
     lattice parameter (alat)  =       6.7300  a.u.
     unit-cell volume          =      76.2053 (a.u.)^3
     number of atoms/cell      =            1
     number of atomic types    =            1
     number of electrons       =        11.00
     number of Kohn-Sham states=           10
     kinetic-energy cutoff     =      25.0000  Ry
     charge density cutoff     =     300.0000  Ry
     convergence threshold     =      1.0E-08
     mixing beta               =       0.7000
     number of iterations used =            8  plain     mixing
     Exchange-correlation      =  SLA  PZ   NOGX NOGC ( 1  1  0  0 0 0)

     celldm(1)=   6.730000  celldm(2)=   0.000000  celldm(3)=   0.000000
     celldm(4)=   0.000000  celldm(5)=   0.000000  celldm(6)=   0.000000

     crystal axes: (cart. coord. in units of alat)
               a(1) = (  -0.500000   0.000000   0.500000 )  
               a(2) = (   0.000000   0.500000   0.500000 )  
               a(3) = (  -0.500000   0.500000   0.000000 )  

     reciprocal axes: (cart. coord. in units 2 pi/alat)
               b(1) = ( -1.000000 -1.000000  1.000000 )  
               b(2) = (  1.000000  1.000000  1.000000 )  
               b(3) = ( -1.000000  1.000000 -1.000000 )  


     PseudoPot. # 1 for Cu read from file:
     /home/nvarini/espresso_hdf5/espresso/pseudo/Cu.pz-d-rrkjus.UPF
     MD5 check sum: fd38ae683e239c95a66f426e1f8e5fc7
     Pseudo is Ultrasoft, Zval = 11.0
     Generated by new atomic code, or converted to UPF format
     Using radial grid of  899 points,  3 beta functions with: 
                l(1) =   2
                l(2) =   2
                l(3) =   1
     Q(r) pseudized with 0 coefficients 


     atomic species   valence    mass     pseudopotential
        Cu            11.00    63.55000     Cu( 1.00)

     48 Sym. Ops., with inversion, found



   Cartesian axes

     site n.     atom                  positions (alat units)
         1           Cu  tau(   1) = (   0.0000000   0.0000000   0.0000000  )

     number of k points=    29  gaussian smearing, width (Ry)=  0.0200
                       cart. coord. in units 2pi/alat
        k(    1) = (   0.0000000   0.0000000   0.0000000), wk =   0.0039062
        k(    2) = (  -0.1250000   0.1250000  -0.1250000), wk =   0.0312500
        k(    3) = (  -0.2500000   0.2500000  -0.2500000), wk =   0.0312500
        k(    4) = (  -0.3750000   0.3750000  -0.3750000), wk =   0.0312500
        k(    5) = (   0.5000000  -0.5000000   0.5000000), wk =   0.0156250
        k(    6) = (   0.0000000   0.2500000   0.0000000), wk =   0.0234375
        k(    7) = (  -0.1250000   0.3750000  -0.1250000), wk =   0.0937500
        k(    8) = (  -0.2500000   0.5000000  -0.2500000), wk =   0.0937500
        k(    9) = (   0.6250000  -0.3750000   0.6250000), wk =   0.0937500
        k(   10) = (   0.5000000  -0.2500000   0.5000000), wk =   0.0937500
        k(   11) = (   0.3750000  -0.1250000   0.3750000), wk =   0.0937500
        k(   12) = (   0.2500000   0.0000000   0.2500000), wk =   0.0468750
        k(   13) = (   0.0000000   0.5000000   0.0000000), wk =   0.0234375
        k(   14) = (  -0.1250000   0.6250000  -0.1250000), wk =   0.0937500
        k(   15) = (   0.7500000  -0.2500000   0.7500000), wk =   0.0937500
        k(   16) = (   0.6250000  -0.1250000   0.6250000), wk =   0.0937500
        k(   17) = (   0.5000000   0.0000000   0.5000000), wk =   0.0468750
        k(   18) = (   0.0000000   0.7500000   0.0000000), wk =   0.0234375
        k(   19) = (   0.8750000  -0.1250000   0.8750000), wk =   0.0937500
        k(   20) = (   0.7500000   0.0000000   0.7500000), wk =   0.0468750
        k(   21) = (   0.0000000  -1.0000000   0.0000000), wk =   0.0117188
        k(   22) = (  -0.2500000   0.5000000   0.0000000), wk =   0.0937500
        k(   23) = (   0.6250000  -0.3750000   0.8750000), wk =   0.1875000
        k(   24) = (   0.5000000  -0.2500000   0.7500000), wk =   0.0937500
        k(   25) = (   0.7500000  -0.2500000   1.0000000), wk =   0.0937500
        k(   26) = (   0.6250000  -0.1250000   0.8750000), wk =   0.1875000
        k(   27) = (   0.5000000   0.0000000   0.7500000), wk =   0.0937500
        k(   28) = (  -0.2500000  -1.0000000   0.0000000), wk =   0.0468750
        k(   29) = (  -0.5000000  -1.0000000   0.0000000), wk =   0.0234375

     Dense  grid:     6735 G-vectors     FFT dimensions: (  27,  27,  27)

     Smooth grid:     1243 G-vectors     FFT dimensions: (  15,  15,  15)

     Largest allocated arrays     est. size (Mb)     dimensions
        Kohn-Sham Wavefunctions         0.01 Mb     (      86,   10)
        NL pseudopotentials             0.02 Mb     (      86,   13)
        Each V/rho on FFT grid          0.16 Mb     (   10206)
        Each G-vector array             0.03 Mb     (    3368)
        G-vector shells                 0.00 Mb     (     118)
     Largest temporary arrays     est. size (Mb)     dimensions
        Each subspace H/S matrix        0.00 Mb     (      10,   10)
        Each <psi_i|beta_j> matrix      0.00 Mb     (      13,   10)
        Arrays for rho mixing           1.25 Mb     (   10206,    8)

     Initial potential from superposition of free atoms

     starting charge   10.99968, renormalised to   11.00000
     Starting wfc are    6 randomized atomic wfcs +    4 random wfc

     total cpu time spent up to now is        0.2 secs

     per-process dynamical memory:    20.8 Mb

     Self-consistent Calculation

     iteration #  1     ecut=    25.00 Ry     beta=0.70
     CG style diagonalization
     ethr =  1.00E-02,  avg # of iterations =  4.9

     Threshold (ethr) on eigenvalues was too large:
     Diagonalizing with lowered threshold

     CG style diagonalization
     c_bands:  1 eigenvalues not converged
     c_bands:  1 eigenvalues not converged
     c_bands:  1 eigenvalues not converged
     c_bands:  1 eigenvalues not converged
     c_bands:  1 eigenvalues not converged
     c_bands:  1 eigenvalues not converged
     c_bands:  1 eigenvalues not converged
     c_bands:  1 eigenvalues not converged
     c_bands:  2 eigenvalues not converged
     c_bands:  1 eigenvalues not converged
     ethr =  1.90E-05,  avg # of iterations =  9.7

     total cpu time spent up to now is        0.9 secs

     total energy              =     -87.90740942 Ry
     Harris-Foulkes estimate   =     -87.90888575 Ry
     estimated scf accuracy    <       0.00208817 Ry

     iteration #  2     ecut=    25.00 Ry     beta=0.70
     CG style diagonalization
     c_bands:  1 eigenvalues not converged
     c_bands:  1 eigenvalues not converged
     c_bands:  1 eigenvalues not converged
     c_bands:  1 eigenvalues not converged
     c_bands:  1 eigenvalues not converged
     c_bands:  1 eigenvalues not converged
     c_bands:  1 eigenvalues not converged
     c_bands:  1 eigenvalues not converged
     c_bands:  1 eigenvalues not converged
     c_bands:  2 eigenvalues not converged
     c_bands:  1 eigenvalues not converged
     ethr =  1.90E-05,  avg # of iterations = 10.6

     total cpu time spent up to now is        1.4 secs

     total energy              =     -87.88579401 Ry
     Harris-Foulkes estimate   =     -87.88590776 Ry
     estimated scf accuracy    <       0.00014773 Ry

     iteration #  3     ecut=    25.00 Ry     beta=0.70
     CG style diagonalization
     c_bands:  4 eigenvalues not converged
     c_bands:  1 eigenvalues not converged
     c_bands:  1 eigenvalues not converged
     c_bands:  1 eigenvalues not converged
     c_bands:  3 eigenvalues not converged
     c_bands:  2 eigenvalues not converged
     c_bands:  1 eigenvalues not converged
     c_bands:  1 eigenvalues not converged
     c_bands:  1 eigenvalues not converged
     c_bands:  2 eigenvalues not converged
     c_bands:  2 eigenvalues not converged
     c_bands:  2 eigenvalues not converged
     c_bands:  2 eigenvalues not converged
     c_bands:  1 eigenvalues not converged
     c_bands:  1 eigenvalues not converged
     c_bands:  1 eigenvalues not converged
     c_bands:  1 eigenvalues not converged
     c_bands:  2 eigenvalues not converged
     c_bands:  1 eigenvalues not converged
     c_bands:  1 eigenvalues not converged
     ethr =  1.34E-06,  avg # of iterations = 12.9

     total cpu time spent up to now is        2.0 secs

     total energy              =     -87.87881209 Ry
     Harris-Foulkes estimate   =     -87.87881209 Ry
     estimated scf accuracy    <       0.00000002 Ry

     iteration #  4     ecut=    25.00 Ry     beta=0.70
     CG style diagonalization
     c_bands:  4 eigenvalues not converged
     c_bands:  4 eigenvalues not converged
     c_bands:  4 eigenvalues not converged
     c_bands:  5 eigenvalues not converged
     c_bands:  4 eigenvalues not converged
     c_bands:  4 eigenvalues not converged
     c_bands:  4 eigenvalues not converged
     c_bands:  4 eigenvalues not converged
     c_bands:  4 eigenvalues not converged
     c_bands:  4 eigenvalues not converged
     c_bands:  5 eigenvalues not converged
     c_bands:  4 eigenvalues not converged
     c_bands:  3 eigenvalues not converged
     c_bands:  3 eigenvalues not converged
     c_bands:  4 eigenvalues not converged
     c_bands:  4 eigenvalues not converged
     c_bands:  3 eigenvalues not converged
     c_bands:  3 eigenvalues not converged
     c_bands:  4 eigenvalues not converged
     c_bands:  2 eigenvalues not converged
     c_bands:  4 eigenvalues not converged
     c_bands:  5 eigenvalues not converged
     c_bands:  5 eigenvalues not converged
     c_bands:  4 eigenvalues not converged
     c_bands:  3 eigenvalues not converged
     c_bands:  2 eigenvalues not converged
     c_bands:  3 eigenvalues not converged
     ethr =  1.67E-10,  avg # of iterations = 18.4

     total cpu time spent up to now is        2.8 secs

     End of self-consistent calculation

          k = 0.0000 0.0000 0.0000 (   169 PWs)   bands (ev):

     5.0396  12.6839  12.6839  12.6839  13.6805  13.6805  38.8096  41.1104
    41.1087  41.1023

          k =-0.1250 0.1250-0.1250 (   165 PWs)   bands (ev):

     5.6216  12.5344  12.7955  12.7955  13.6426  13.6426  34.5083  39.2507
    39.9154  39.9126

          k =-0.2500 0.2500-0.2500 (   156 PWs)   bands (ev):

     7.2470  12.2624  12.8655  12.8655  13.7753  13.7753  27.8957  38.4051
    38.6319  38.6319

          k =-0.3750 0.3750-0.3750 (   159 PWs)   bands (ev):

     9.2523  12.4979  12.7129  12.7143  14.1644  14.1584  22.3680  37.3469
    37.9768  37.9755

          k = 0.5000-0.5000 0.5000 (   156 PWs)   bands (ev):

    10.0130  12.6265  12.6265  13.4502  14.3651  14.3651  19.5253  36.8829
    37.8226  37.8230

          k = 0.0000 0.2500 0.0000 (   165 PWs)   bands (ev):

     5.8131  12.4161  12.8922  12.8922  13.4412  13.7754  36.9475  36.9671
    36.9777  38.7022

          k =-0.1250 0.3750-0.1250 (   160 PWs)   bands (ev):

     7.0881  12.1289  12.9194  13.0631  13.4994  13.9200  30.3912  35.0793
    36.5663  39.1700

          k =-0.2500 0.5000-0.2500 (   158 PWs)   bands (ev):

     9.0428  11.9887  12.6202  12.9867  14.2383  14.2404  24.3944  34.3243
    35.0761  36.9074

          k = 0.6250-0.3750 0.6250 (   163 PWs)   bands (ev):

    10.2844  12.2096  12.7030  12.8499  14.3771  15.4957  20.0676  33.0358
    34.8619  36.5395

          k = 0.5000-0.2500 0.5000 (   161 PWs)   bands (ev):

    10.0624  12.2771  12.5609  12.8506  14.1128  15.2142  21.2103  31.8401
    36.7827  37.3631

          k = 0.3750-0.1250 0.3750 (   159 PWs)   bands (ev):

     8.3824  12.0797  12.6979  13.0132  13.6040  14.3881  26.2912  31.7599
    39.3322  39.9897

          k = 0.2500 0.0000 0.2500 (   160 PWs)   bands (ev):

     6.5554  12.3048  12.8725  12.9883  13.4204  13.8743  32.3665  32.9926
    41.5434  42.5162

          k = 0.0000 0.5000 0.0000 (   165 PWs)   bands (ev):

     7.9151  11.7915  13.0081  13.4674  13.4674  14.0071  32.5589  32.5589
    33.9527  34.9060

          k =-0.1250 0.6250-0.1250 (   162 PWs)   bands (ev):

     9.4032  11.5306  12.7359  13.5786  14.2703  14.3380  27.3014  30.6690
    31.2932  35.3663

          k = 0.7500-0.2500 0.7500 (   158 PWs)   bands (ev):

    10.6945  11.4692  12.5137  13.4341  14.4146  16.4042  22.0767  28.0329
    31.4995  35.4122

          k = 0.6250-0.1250 0.6250 (   162 PWs)   bands (ev):

    11.0421  11.6428  12.3093  13.3125  14.1419  17.5092  20.6956  26.4117
    33.2045  36.0463

          k = 0.5000 0.0000 0.5000 (   164 PWs)   bands (ev):

    10.0703  11.9567  12.2261  13.2591  13.6808  15.4921  25.0570  26.3521
    36.1680  37.5080

          k = 0.0000 0.7500 0.0000 (   162 PWs)   bands (ev):

     9.9367  11.1962  13.8814  14.1832  14.2374  14.1831  26.8994  29.4429
    29.4428  33.7925

          k = 0.8750-0.1250 0.8750 (   164 PWs)   bands (ev):

    10.4286  11.1185  13.5214  14.0886  14.4655  16.4810  24.2613  25.5229
    29.1444  34.5867

          k = 0.7500 0.0000 0.7500 (   168 PWs)   bands (ev):

    10.9830  11.2670  12.7615  13.8155  14.3039  19.4805  20.9851  23.4512
    30.5028  35.1021

          k = 0.0000-1.0000 0.0000 (   150 PWs)   bands (ev):

    10.2627  10.9580  14.3412  14.5399  14.5399  16.1098  22.8002  28.2727
    28.2727  33.4504

          k =-0.2500 0.5000 0.0000 (   156 PWs)   bands (ev):

     8.5484  11.8577  12.6288  13.4861  13.4849  14.4140  28.7611  29.4144
    34.9407  39.9111

          k = 0.6250-0.3750 0.8750 (   161 PWs)   bands (ev):

    10.2653  11.7786  12.2804  13.3067  14.0684  15.5541  23.3821  28.8862
    31.9320  39.8038

          k = 0.5000-0.2500 0.7500 (   164 PWs)   bands (ev):

    10.9243  11.7052  12.3883  13.1938  14.2969  17.3411  19.8654  29.6099
    30.0829  39.4612

          k = 0.7500-0.2500 1.0000 (   166 PWs)   bands (ev):

    10.4061  11.3818  12.6461  13.9544  14.1808  15.7717  26.2276  26.9565
    27.5954  38.1633

          k = 0.6250-0.1250 0.8750 (   161 PWs)   bands (ev):

    11.0701  11.4564  12.3598  13.6743  14.3933  18.6244  21.6898  25.2270
    27.3924  39.2278

          k = 0.5000 0.0000 0.7500 (   158 PWs)   bands (ev):

    11.2194  11.6976  11.9454  13.5357  14.1910  17.8670  22.4296  24.6118
    29.1809  40.3676

          k =-0.2500-1.0000 0.0000 (   164 PWs)   bands (ev):

    10.6403  11.1864  13.1920  14.0261  14.5401  18.1278  23.0223  25.2508
    26.2436  37.5866

          k =-0.5000-1.0000 0.0000 (   156 PWs)   bands (ev):

    11.1341  11.9117  11.9117  13.5906  14.5406  21.3864  21.3865  23.6520
    24.4158  44.7959

     the Fermi energy is    15.5756 ev

!    total energy              =     -87.87872458 Ry
     Harris-Foulkes estimate   =     -87.87872458 Ry
     estimated scf accuracy    <          4.6E-10 Ry

     The total energy is the sum of the following terms:

     one-electron contribution =     -11.19974391 Ry
     hartree contribution      =      20.03802327 Ry
     xc contribution           =     -14.28267862 Ry
     ewald contribution        =     -82.43214130 Ry
     smearing contrib. (-TS)   =      -0.00218400 Ry

     convergence has been achieved in   4 iterations

     Forces acting on atoms (Ry/au):

     atom    1 type  1   force =     0.00000000    0.00000000    0.00000000

     Total force =     0.000000     Total SCF correction =     0.000000


     entering subroutine stress ...

          total   stress  (Ry/bohr**3)                   (kbar)     P= 1408.88
   0.00957737   0.00000000   0.00000000       1408.88      0.00      0.00
   0.00000000   0.00957737  -0.00000000          0.00   1408.88     -0.00
   0.00000000  -0.00000000   0.00957737          0.00     -0.00   1408.88


     Writing output data file cu.save
 
     init_run     :      0.22s CPU      0.22s WALL (       1 calls)
     electrons    :      2.38s CPU      2.55s WALL (       1 calls)
     forces       :      0.01s CPU      0.01s WALL (       1 calls)
     stress       :      0.04s CPU      0.05s WALL (       1 calls)

     Called by init_run:
     wfcinit      :      0.03s CPU      0.03s WALL (       1 calls)
     potinit      :      0.00s CPU      0.00s WALL (       1 calls)

     Called by electrons:
     c_bands      :      2.24s CPU      2.42s WALL (       5 calls)
     sum_band     :      0.11s CPU      0.11s WALL (       5 calls)
     v_of_rho     :      0.01s CPU      0.01s WALL (       5 calls)
     newd         :      0.02s CPU      0.02s WALL (       5 calls)
     mix_rho      :      0.00s CPU      0.00s WALL (       5 calls)

     Called by c_bands:
     init_us_2    :      0.01s CPU      0.01s WALL (     377 calls)
     ccgdiagg     :      2.16s CPU      2.33s WALL (     147 calls)
     wfcrot       :      0.09s CPU      0.10s WALL (     118 calls)

     Called by sum_band:
     sum_band:bec :      0.00s CPU      0.00s WALL (     145 calls)
     addusdens    :      0.03s CPU      0.03s WALL (       5 calls)

     Called by *cgdiagg:
     h_psi        :      1.38s CPU      1.52s WALL (   15465 calls)
     s_psi        :      0.16s CPU      0.15s WALL (   30812 calls)
     cdiaghg      :      0.01s CPU      0.01s WALL (     118 calls)

     Called by h_psi:
     add_vuspsi   :      0.07s CPU      0.09s WALL (   15465 calls)
     h_1psi       :      1.45s CPU      1.58s WALL (   15347 calls)

     General routines
     calbec       :      0.23s CPU      0.27s WALL (   31102 calls)
     fft          :      0.01s CPU      0.01s WALL (      50 calls)
     ffts         :      0.00s CPU      0.00s WALL (      10 calls)
     fftw         :      0.94s CPU      1.01s WALL (   34504 calls)
     interpolate  :      0.00s CPU      0.00s WALL (      10 calls)
     davcio       :      0.00s CPU      0.00s WALL (      29 calls)
 
     Parallel routines
     fft_scatter  :      0.27s CPU      0.29s WALL (   34564 calls)
 
     PWSCF        :     2.79s CPU         2.97s WALL

 
   This run was terminated on:  10:30:11  28Jan2016            

=------------------------------------------------------------------------------=
   JOB DONE.
=------------------------------------------------------------------------------=
