
     Program PWSCF v.5.3.0 (svn rev. 12078) starts on 28Jan2016 at 10:30: 3 

     This program is part of the open-source Quantum ESPRESSO suite
     for quantum simulation of materials; please cite
         "P. Giannozzi et al., J. Phys.:Condens. Matter 21 395502 (2009);
          URL http://www.quantum-espresso.org", 
     in publications or presentations arising from this work. More details at
     http://www.quantum-espresso.org/quote

     Parallel version (MPI), running on     2 processors
     R & G space division:  proc/nbgrp/npool/nimage =       2
     Waiting for input...
     Reading input from standard input
     Message from routine read_cards :
     DEPRECATED: no units specified in ATOMIC_POSITIONS card
     Message from routine read_cards :
     ATOMIC_POSITIONS: units set to alat

     Current dimensions of program PWSCF are:
     Max number of different atomic species (ntypx) = 10
     Max number of k-points (npk) =  40000
     Max angular momentum in pseudopotentials (lmaxx) =  3

     Atomic positions and unit cell read from directory:
     /home/nvarini/espresso_hdf5/espresso/tempdir/ni.save/
 
               file Ni.pz-nd-rrkjus.UPF: wavefunction(s)  4S renormalized

     Subspace diagonalization in iterative solution of the eigenvalue problem:
     a serial algorithm will be used

 
     Parallelization info
     --------------------
     sticks:   dense  smooth     PW     G-vecs:    dense   smooth      PW
     Min         210      69     27                 2799      532     141
     Max         211      70     28                 2802      535     142
     Sum         421     139     55                 5601     1067     283
 
     Generating pointlists ...
     new r_m :   0.2917 (alat units)  1.8901 (a.u.) for type    1


     bravais-lattice index     =            2
     lattice parameter (alat)  =       6.4800  a.u.
     unit-cell volume          =      68.0244 (a.u.)^3
     number of atoms/cell      =            1
     number of atomic types    =            1
     number of electrons       =        10.00
     number of Kohn-Sham states=            8
     kinetic-energy cutoff     =      24.0000  Ry
     charge density cutoff     =     288.0000  Ry
     Exchange-correlation      =  SLA  PZ   NOGX NOGC ( 1  1  0  0 0 0)

     celldm(1)=   6.480000  celldm(2)=   0.000000  celldm(3)=   0.000000
     celldm(4)=   0.000000  celldm(5)=   0.000000  celldm(6)=   0.000000

     crystal axes: (cart. coord. in units of alat)
               a(1) = (  -0.500000   0.000000   0.500000 )  
               a(2) = (   0.000000   0.500000   0.500000 )  
               a(3) = (  -0.500000   0.500000   0.000000 )  

     reciprocal axes: (cart. coord. in units 2 pi/alat)
               b(1) = ( -1.000000 -1.000000  1.000000 )  
               b(2) = (  1.000000  1.000000  1.000000 )  
               b(3) = ( -1.000000  1.000000 -1.000000 )  


     PseudoPot. # 1 for Ni read from file:
     /home/nvarini/espresso_hdf5/espresso/pseudo/Ni.pz-nd-rrkjus.UPF
     MD5 check sum: bf64e4f20c74808dea28321d1ca350c3
     Pseudo is Ultrasoft + core correction, Zval = 10.0
     Generated by new atomic code, or converted to UPF format
     Using radial grid of 1203 points,  6 beta functions with: 
                l(1) =   0
                l(2) =   0
                l(3) =   1
                l(4) =   1
                l(5) =   2
                l(6) =   2
     Q(r) pseudized with 0 coefficients 


     atomic species   valence    mass     pseudopotential
        Ni            10.00    58.69000     Ni( 1.00)

     Starting magnetic structure 
     atomic species   magnetization
        Ni           0.700

     48 Sym. Ops., with inversion, found



   Cartesian axes

     site n.     atom                  positions (alat units)
         1           Ni  tau(   1) = (   0.0000000   0.0000000   0.0000000  )

     number of k points=    28
                       cart. coord. in units 2pi/alat
        k(    1) = (   0.0000000   0.0000000   0.0000000), wk =   0.0357143
        k(    2) = (   0.0000000   0.0000000   0.1000000), wk =   0.0357143
        k(    3) = (   0.0000000   0.0000000   0.2000000), wk =   0.0357143
        k(    4) = (   0.0000000   0.0000000   0.3000000), wk =   0.0357143
        k(    5) = (   0.0000000   0.0000000   0.4000000), wk =   0.0357143
        k(    6) = (   0.0000000   0.0000000   0.5000000), wk =   0.0357143
        k(    7) = (   0.0000000   0.0000000   0.6000000), wk =   0.0357143
        k(    8) = (   0.0000000   0.0000000   0.7000000), wk =   0.0357143
        k(    9) = (   0.0000000   0.0000000   0.8000000), wk =   0.0357143
        k(   10) = (   0.0000000   0.0000000   0.9000000), wk =   0.0357143
        k(   11) = (   0.0000000   0.0000000   1.0000000), wk =   0.0357143
        k(   12) = (   0.0000000   0.0000000   0.0000000), wk =   0.0357143
        k(   13) = (   0.0000000   0.1000000   0.1000000), wk =   0.0357143
        k(   14) = (   0.0000000   0.2000000   0.2000000), wk =   0.0357143
        k(   15) = (   0.0000000   0.3000000   0.3000000), wk =   0.0357143
        k(   16) = (   0.0000000   0.4000000   0.4000000), wk =   0.0357143
        k(   17) = (   0.0000000   0.5000000   0.5000000), wk =   0.0357143
        k(   18) = (   0.0000000   0.6000000   0.6000000), wk =   0.0357143
        k(   19) = (   0.0000000   0.7000000   0.7000000), wk =   0.0357143
        k(   20) = (   0.0000000   0.8000000   0.8000000), wk =   0.0357143
        k(   21) = (   0.0000000   0.9000000   0.9000000), wk =   0.0357143
        k(   22) = (   0.0000000   1.0000000   1.0000000), wk =   0.0357143
        k(   23) = (   0.0000000   0.0000000   0.0000000), wk =   0.0357143
        k(   24) = (   0.1000000   0.1000000   0.1000000), wk =   0.0357143
        k(   25) = (   0.2000000   0.2000000   0.2000000), wk =   0.0357143
        k(   26) = (   0.3000000   0.3000000   0.3000000), wk =   0.0357143
        k(   27) = (   0.4000000   0.4000000   0.4000000), wk =   0.0357143
        k(   28) = (   0.5000000   0.5000000   0.5000000), wk =   0.0357143

     Dense  grid:     5601 G-vectors     FFT dimensions: (  25,  25,  25)

     Smooth grid:     1067 G-vectors     FFT dimensions: (  15,  15,  15)

     Largest allocated arrays     est. size (Mb)     dimensions
        Kohn-Sham Wavefunctions         0.01 Mb     (      75,    8)
        NL pseudopotentials             0.02 Mb     (      75,   18)
        Each V/rho on FFT grid          0.25 Mb     (    8125,   2)
        Each G-vector array             0.02 Mb     (    2802)
        G-vector shells                 0.00 Mb     (     104)
     Largest temporary arrays     est. size (Mb)     dimensions
        Auxiliary wavefunctions         0.04 Mb     (      75,   32)
        Each subspace H/S matrix        0.02 Mb     (      32,   32)
        Each <psi_i|beta_j> matrix      0.00 Mb     (      18,    8)

     Check: negative/imaginary core charge=   -0.000015    0.000000

     The potential is recalculated from file :
     /home/nvarini/espresso_hdf5/espresso/tempdir/ni.save/charge-density.dat

     Starting wfc are    6 randomized atomic wfcs +    2 random wfc

     Band Structure Calculation
     Davidson diagonalization with overlap

     ethr =  1.00E-08,  avg # of iterations = 11.8

     total cpu time spent up to now is        1.1 secs

     End of band structure calculation

 ------ SPIN UP ------------


          k = 0.0000 0.0000 0.0000 (   137 PWs)   bands (ev):

     5.7394  14.6222  14.6222  14.6222  16.1353  16.1353  39.6997  44.2022

          k = 0.0000 0.0000 0.1000 (   137 PWs)   bands (ev):

     5.8781  14.5562  14.6672  14.6672  16.0744  16.1570  39.5440  43.3572

          k = 0.0000 0.0000 0.2000 (   137 PWs)   bands (ev):

     6.2887  14.3675  14.8016  14.8016  15.8995  16.2203  39.1661  41.6231

          k = 0.0000 0.0000 0.3000 (   141 PWs)   bands (ev):

     6.9533  14.0801  15.0210  15.0210  15.6372  16.3196  38.7107  39.6685

          k = 0.0000 0.0000 0.4000 (   133 PWs)   bands (ev):

     7.8358  13.7314  15.3195  15.3195  15.3378  16.4461  37.7352  37.7352

          k = 0.0000 0.0000 0.5000 (   133 PWs)   bands (ev):

     8.8659  13.3575  15.0882  15.6823  15.6823  16.5878  35.9118  35.9118

          k = 0.0000 0.0000 0.6000 (   133 PWs)   bands (ev):

     9.9064  12.9972  15.0370  16.0867  16.0867  16.7313  34.1892  34.2734

          k = 0.0000 0.0000 0.7000 (   129 PWs)   bands (ev):

    10.7315  12.6831  15.3989  16.4962  16.4962  16.8624  31.5278  32.8828

          k = 0.0000 0.0000 0.8000 (   129 PWs)   bands (ev):

    11.1723  12.4406  16.2640  16.8595  16.8595  16.9675  29.0441  31.8078

          k = 0.0000 0.0000 0.9000 (   129 PWs)   bands (ev):

    11.3239  12.2880  17.0354  17.1150  17.1150  17.3029  27.1120  31.1210

          k = 0.0000 0.0000 1.0000 (   126 PWs)   bands (ev):

    11.3541  12.2363  17.0589  17.2077  17.2077  17.8107  26.3231  30.8834

          k = 0.0000 0.0000 0.0000 (   137 PWs)   bands (ev):

     5.7394  14.6222  14.6222  14.6222  16.1353  16.1353  39.6997  44.2022

          k = 0.0000 0.1000 0.1000 (   137 PWs)   bands (ev):

     6.0158  14.5132  14.6916  14.7053  16.0573  16.1422  39.2108  41.6327

          k = 0.0000 0.2000 0.2000 (   141 PWs)   bands (ev):

     6.8218  14.2330  14.8598  14.8917  15.8604  16.2310  37.0508  37.9440

          k = 0.0000 0.3000 0.3000 (   141 PWs)   bands (ev):

     8.0827  13.8949  14.8325  15.1998  15.6371  16.5887  34.0649  34.5729

          k = 0.0000 0.4000 0.4000 (   137 PWs)   bands (ev):

     9.6463  13.6309  14.5100  15.4901  15.5805  17.2727  31.0736  31.7145

          k = 0.0000 0.5000 0.5000 (   138 PWs)   bands (ev):

    11.2149  13.5508  13.9712  15.4972  15.9907  18.2795  28.2532  29.4725

          k = 0.0000 0.6000 0.6000 (   136 PWs)   bands (ev):

    12.3153  13.3091  13.7298  15.6930  16.3864  19.8602  25.6463  27.9288

          k = 0.0000 0.7000 0.7000 (   132 PWs)   bands (ev):

    12.6062  12.6745  14.2084  16.0583  16.7292  22.2725  23.2637  27.0385

          k = 0.0000 0.8000 0.8000 (   134 PWs)   bands (ev):

    11.9752  12.5426  14.9969  16.5102  16.9905  21.1102  25.3296  26.6690

          k = 0.0000 0.9000 0.9000 (   130 PWs)   bands (ev):

    11.5198  12.3270  16.0850  16.9010  17.1528  19.2054  26.3467  28.8634

          k = 0.0000 1.0000 1.0000 (   126 PWs)   bands (ev):

    11.3541  12.2363  17.0589  17.2077  17.2077  17.8107  26.3231  30.8834

          k = 0.0000 0.0000 0.0000 (   137 PWs)   bands (ev):

     5.7394  14.6222  14.6222  14.6222  16.1353  16.1353  39.6997  44.2022

          k = 0.1000 0.1000 0.1000 (   135 PWs)   bands (ev):

     6.1524  14.4724  14.7262  14.7262  16.0875  16.0875  38.5267  41.2855

          k = 0.2000 0.2000 0.2000 (   138 PWs)   bands (ev):

     7.3323  14.1274  14.8919  14.8919  16.0917  16.0917  33.6817  40.3786

          k = 0.3000 0.3000 0.3000 (   144 PWs)   bands (ev):

     9.0384  13.8805  14.8342  14.8342  16.4077  16.4077  28.7325  39.3790

          k = 0.4000 0.4000 0.4000 (   144 PWs)   bands (ev):

    10.5753  14.2200  14.6660  14.6660  16.8295  16.8295  24.6716  38.4407

          k = 0.5000 0.5000 0.5000 (   138 PWs)   bands (ev):

    11.0855  14.5900  14.5900  14.8373  17.0141  17.0141  22.8071  38.0781

 ------ SPIN DOWN ----------


          k = 0.0000 0.0000 0.0000 (   137 PWs)   bands (ev):

     5.8479  15.3888  15.3888  15.3888  16.8408  16.8408  39.7540  44.2960

          k = 0.0000 0.0000 0.1000 (   137 PWs)   bands (ev):

     5.9865  15.3182  15.4350  15.4350  16.7764  16.8633  39.6189  43.4921

          k = 0.0000 0.0000 0.2000 (   137 PWs)   bands (ev):

     6.3971  15.1164  15.5727  15.5727  16.5909  16.9287  39.2890  41.8027

          k = 0.0000 0.0000 0.3000 (   141 PWs)   bands (ev):

     7.0625  14.8098  15.7980  15.7980  16.3104  17.0313  38.8894  39.8708

          k = 0.0000 0.0000 0.4000 (   133 PWs)   bands (ev):

     7.9485  14.4391  15.9837  16.1060  16.1060  17.1621  37.9440  37.9440

          k = 0.0000 0.0000 0.5000 (   133 PWs)   bands (ev):

     8.9909  14.0428  15.6925  16.4821  16.4821  17.3088  36.1162  36.1162

          k = 0.0000 0.0000 0.6000 (   133 PWs)   bands (ev):

    10.0673  13.6622  15.5711  16.9042  16.9042  17.4573  34.4206  34.4648

          k = 0.0000 0.0000 0.7000 (   129 PWs)   bands (ev):

    10.9703  13.3312  15.8146  17.3352  17.3352  17.5930  31.8100  33.0551

          k = 0.0000 0.0000 0.8000 (   129 PWs)   bands (ev):

    11.5057  13.0763  16.5358  17.7019  17.7209  17.7209  29.3777  31.9586

          k = 0.0000 0.0000 0.9000 (   129 PWs)   bands (ev):

    11.7163  12.9161  17.4583  17.7723  17.9945  17.9945  27.5023  31.2541

          k = 0.0000 0.0000 1.0000 (   126 PWs)   bands (ev):

    11.7643  12.8618  17.7967  17.9149  18.0945  18.0945  26.7462  31.0094

          k = 0.0000 0.0000 0.0000 (   137 PWs)   bands (ev):

     5.8479  15.3888  15.3888  15.3888  16.8408  16.8408  39.7540  44.2960

          k = 0.0000 0.1000 0.1000 (   137 PWs)   bands (ev):

     6.1242  15.2697  15.4613  15.4731  16.7582  16.8479  39.3184  41.7604

          k = 0.0000 0.2000 0.2000 (   141 PWs)   bands (ev):

     6.9311  14.9628  15.6174  15.6703  16.5495  16.9478  37.2743  38.1046

          k = 0.0000 0.3000 0.3000 (   141 PWs)   bands (ev):

     8.1984  14.5893  15.5479  15.9923  16.3127  17.3394  34.3564  34.7669

          k = 0.0000 0.4000 0.4000 (   137 PWs)   bands (ev):

     9.7867  14.2886  15.1707  16.1553  16.3906  18.0412  31.4092  31.9413

          k = 0.0000 0.5000 0.5000 (   138 PWs)   bands (ev):

    11.4278  14.1746  14.5737  16.1586  16.8200  19.0025  28.6226  29.7320

          k = 0.0000 0.6000 0.6000 (   136 PWs)   bands (ev):

    12.6690  13.8548  14.3244  16.3593  17.2345  20.4427  26.0434  28.2257

          k = 0.0000 0.7000 0.7000 (   132 PWs)   bands (ev):

    13.0321  13.2400  14.7788  16.7391  17.5935  22.6873  23.6842  27.3773

          k = 0.0000 0.8000 0.8000 (   134 PWs)   bands (ev):

    12.4070  13.1408  15.5481  17.2136  17.8671  21.5497  25.6413  27.0286

          k = 0.0000 0.9000 0.9000 (   130 PWs)   bands (ev):

    11.9349  12.9481  16.6279  17.6280  18.0370  19.6534  26.7632  29.0549

          k = 0.0000 1.0000 1.0000 (   126 PWs)   bands (ev):

    11.7643  12.8618  17.7967  17.9149  18.0945  18.0945  26.7462  31.0094

          k = 0.0000 0.0000 0.0000 (   137 PWs)   bands (ev):

     5.8479  15.3888  15.3888  15.3888  16.8408  16.8408  39.7540  44.2960

          k = 0.1000 0.1000 0.1000 (   135 PWs)   bands (ev):

     6.2608  15.2231  15.4957  15.4957  16.7906  16.7906  38.6800  41.3636

          k = 0.2000 0.2000 0.2000 (   138 PWs)   bands (ev):

     7.4446  14.8292  15.6497  15.6497  16.8095  16.8095  33.9389  40.4418

          k = 0.3000 0.3000 0.3000 (   144 PWs)   bands (ev):

     9.1836  14.4759  15.5513  15.5513  17.1751  17.1751  29.0741  39.4345

          k = 0.4000 0.4000 0.4000 (   144 PWs)   bands (ev):

    10.8706  14.5472  15.3570  15.3570  17.6355  17.6355  25.1347  38.4815

          k = 0.5000 0.5000 0.5000 (   138 PWs)   bands (ev):

    11.5217  14.9158  15.2730  15.2730  17.8343  17.8343  23.3786  38.1129

     Writing output data file ni.save
 
     init_run     :      0.32s CPU      0.32s WALL (       1 calls)
     electrons    :      0.51s CPU      0.52s WALL (       1 calls)

     Called by init_run:
     wfcinit      :      0.00s CPU      0.00s WALL (       1 calls)
     potinit      :      0.01s CPU      0.01s WALL (       1 calls)

     Called by electrons:
     c_bands      :      0.51s CPU      0.52s WALL (       1 calls)
     v_of_rho     :      0.00s CPU      0.00s WALL (       1 calls)
     newd         :      0.01s CPU      0.01s WALL (       1 calls)

     Called by c_bands:
     init_us_2    :      0.00s CPU      0.00s WALL (      56 calls)
     cegterg      :      0.46s CPU      0.47s WALL (      57 calls)

     Called by sum_band:

     Called by *egterg:
     h_psi        :      0.27s CPU      0.27s WALL (     776 calls)
     s_psi        :      0.01s CPU      0.01s WALL (     776 calls)
     g_psi        :      0.00s CPU      0.00s WALL (     663 calls)
     cdiaghg      :      0.18s CPU      0.17s WALL (     719 calls)

     Called by h_psi:
     add_vuspsi   :      0.01s CPU      0.01s WALL (     776 calls)

     General routines
     calbec       :      0.01s CPU      0.01s WALL (     776 calls)
     fft          :      0.00s CPU      0.00s WALL (       9 calls)
     ffts         :      0.00s CPU      0.00s WALL (       2 calls)
     fftw         :      0.20s CPU      0.21s WALL (    7464 calls)
     interpolate  :      0.00s CPU      0.00s WALL (       2 calls)
     davcio       :      0.00s CPU      0.00s WALL (      56 calls)
 
     Parallel routines
     fft_scatter  :      0.05s CPU      0.05s WALL (    7475 calls)
 
     PWSCF        :     1.25s CPU         1.30s WALL

 
   This run was terminated on:  10:30: 4  28Jan2016            

=------------------------------------------------------------------------------=
   JOB DONE.
=------------------------------------------------------------------------------=
