
     Program PWSCF v.5.3.0 (svn rev. 12078) starts on 28Jan2016 at 10:30:12 

     This program is part of the open-source Quantum ESPRESSO suite
     for quantum simulation of materials; please cite
         "P. Giannozzi et al., J. Phys.:Condens. Matter 21 395502 (2009);
          URL http://www.quantum-espresso.org", 
     in publications or presentations arising from this work. More details at
     http://www.quantum-espresso.org/quote

     Parallel version (MPI), running on     2 processors
     R & G space division:  proc/nbgrp/npool/nimage =       2
     Waiting for input...
     Reading input from standard input
     Message from routine read_cards :
     DEPRECATED: no units specified in ATOMIC_POSITIONS card
     Message from routine read_cards :
     ATOMIC_POSITIONS: units set to alat

     Current dimensions of program PWSCF are:
     Max number of different atomic species (ntypx) = 10
     Max number of k-points (npk) =  40000
     Max angular momentum in pseudopotentials (lmaxx) =  3
               file Ni.pz-nd-rrkjus.UPF: wavefunction(s)  4S renormalized

     Subspace diagonalization in iterative solution of the eigenvalue problem:
     a serial algorithm will be used

 
     Parallelization info
     --------------------
     sticks:   dense  smooth     PW     G-vecs:    dense   smooth      PW
     Min         210      69     27                 2799      531     129
     Max         211      70     28                 2802      536     130
     Sum         421     139     55                 5601     1067     259
 
     Generating pointlists ...
     new r_m :   0.2917 (alat units)  1.8901 (a.u.) for type    1


     bravais-lattice index     =            2
     lattice parameter (alat)  =       6.4800  a.u.
     unit-cell volume          =      68.0244 (a.u.)^3
     number of atoms/cell      =            1
     number of atomic types    =            1
     number of electrons       =        10.00
     number of Kohn-Sham states=            9
     kinetic-energy cutoff     =      24.0000  Ry
     charge density cutoff     =     288.0000  Ry
     convergence threshold     =      1.0E-08
     mixing beta               =       0.7000
     number of iterations used =            8  plain     mixing
     Exchange-correlation      =  SLA  PZ   NOGX NOGC ( 1  1  0  0 0 0)

     celldm(1)=   6.480000  celldm(2)=   0.000000  celldm(3)=   0.000000
     celldm(4)=   0.000000  celldm(5)=   0.000000  celldm(6)=   0.000000

     crystal axes: (cart. coord. in units of alat)
               a(1) = (  -0.500000   0.000000   0.500000 )  
               a(2) = (   0.000000   0.500000   0.500000 )  
               a(3) = (  -0.500000   0.500000   0.000000 )  

     reciprocal axes: (cart. coord. in units 2 pi/alat)
               b(1) = ( -1.000000 -1.000000  1.000000 )  
               b(2) = (  1.000000  1.000000  1.000000 )  
               b(3) = ( -1.000000  1.000000 -1.000000 )  


     PseudoPot. # 1 for Ni read from file:
     /home/nvarini/espresso_hdf5/espresso/pseudo/Ni.pz-nd-rrkjus.UPF
     MD5 check sum: bf64e4f20c74808dea28321d1ca350c3
     Pseudo is Ultrasoft + core correction, Zval = 10.0
     Generated by new atomic code, or converted to UPF format
     Using radial grid of 1203 points,  6 beta functions with: 
                l(1) =   0
                l(2) =   0
                l(3) =   1
                l(4) =   1
                l(5) =   2
                l(6) =   2
     Q(r) pseudized with 0 coefficients 


     atomic species   valence    mass     pseudopotential
        Ni            10.00    58.69000     Ni( 1.00)

     Starting magnetic structure 
     atomic species   magnetization
        Ni           0.700

     48 Sym. Ops., with inversion, found



   Cartesian axes

     site n.     atom                  positions (alat units)
         1           Ni  tau(   1) = (   0.0000000   0.0000000   0.0000000  )

     number of k points=    60  Methfessel-Paxton smearing, width (Ry)=  0.0200
                       cart. coord. in units 2pi/alat
        k(    1) = (   0.0625000   0.0625000   0.0625000), wk =   0.0039062
        k(    2) = (   0.0625000   0.0625000   0.1875000), wk =   0.0117188
        k(    3) = (   0.0625000   0.0625000   0.3125000), wk =   0.0117188
        k(    4) = (   0.0625000   0.0625000   0.4375000), wk =   0.0117188
        k(    5) = (   0.0625000   0.0625000   0.5625000), wk =   0.0117188
        k(    6) = (   0.0625000   0.0625000   0.6875000), wk =   0.0117188
        k(    7) = (   0.0625000   0.0625000   0.8125000), wk =   0.0117188
        k(    8) = (   0.0625000   0.0625000   0.9375000), wk =   0.0117188
        k(    9) = (   0.0625000   0.1875000   0.1875000), wk =   0.0117188
        k(   10) = (   0.0625000   0.1875000   0.3125000), wk =   0.0234375
        k(   11) = (   0.0625000   0.1875000   0.4375000), wk =   0.0234375
        k(   12) = (   0.0625000   0.1875000   0.5625000), wk =   0.0234375
        k(   13) = (   0.0625000   0.1875000   0.6875000), wk =   0.0234375
        k(   14) = (   0.0625000   0.1875000   0.8125000), wk =   0.0234375
        k(   15) = (   0.0625000   0.1875000   0.9375000), wk =   0.0234375
        k(   16) = (   0.0625000   0.3125000   0.3125000), wk =   0.0117188
        k(   17) = (   0.0625000   0.3125000   0.4375000), wk =   0.0234375
        k(   18) = (   0.0625000   0.3125000   0.5625000), wk =   0.0234375
        k(   19) = (   0.0625000   0.3125000   0.6875000), wk =   0.0234375
        k(   20) = (   0.0625000   0.3125000   0.8125000), wk =   0.0234375
        k(   21) = (   0.0625000   0.3125000   0.9375000), wk =   0.0234375
        k(   22) = (   0.0625000   0.4375000   0.4375000), wk =   0.0117188
        k(   23) = (   0.0625000   0.4375000   0.5625000), wk =   0.0234375
        k(   24) = (   0.0625000   0.4375000   0.6875000), wk =   0.0234375
        k(   25) = (   0.0625000   0.4375000   0.8125000), wk =   0.0234375
        k(   26) = (   0.0625000   0.4375000   0.9375000), wk =   0.0234375
        k(   27) = (   0.0625000   0.5625000   0.5625000), wk =   0.0117188
        k(   28) = (   0.0625000   0.5625000   0.6875000), wk =   0.0234375
        k(   29) = (   0.0625000   0.5625000   0.8125000), wk =   0.0234375
        k(   30) = (   0.0625000   0.6875000   0.6875000), wk =   0.0117188
        k(   31) = (   0.0625000   0.6875000   0.8125000), wk =   0.0234375
        k(   32) = (   0.0625000   0.8125000   0.8125000), wk =   0.0117188
        k(   33) = (   0.1875000   0.1875000   0.1875000), wk =   0.0039062
        k(   34) = (   0.1875000   0.1875000   0.3125000), wk =   0.0117188
        k(   35) = (   0.1875000   0.1875000   0.4375000), wk =   0.0117188
        k(   36) = (   0.1875000   0.1875000   0.5625000), wk =   0.0117188
        k(   37) = (   0.1875000   0.1875000   0.6875000), wk =   0.0117188
        k(   38) = (   0.1875000   0.1875000   0.8125000), wk =   0.0117188
        k(   39) = (   0.1875000   0.3125000   0.3125000), wk =   0.0117188
        k(   40) = (   0.1875000   0.3125000   0.4375000), wk =   0.0234375
        k(   41) = (   0.1875000   0.3125000   0.5625000), wk =   0.0234375
        k(   42) = (   0.1875000   0.3125000   0.6875000), wk =   0.0234375
        k(   43) = (   0.1875000   0.3125000   0.8125000), wk =   0.0234375
        k(   44) = (   0.1875000   0.4375000   0.4375000), wk =   0.0117188
        k(   45) = (   0.1875000   0.4375000   0.5625000), wk =   0.0234375
        k(   46) = (   0.1875000   0.4375000   0.6875000), wk =   0.0234375
        k(   47) = (   0.1875000   0.4375000   0.8125000), wk =   0.0234375
        k(   48) = (   0.1875000   0.5625000   0.5625000), wk =   0.0117188
        k(   49) = (   0.1875000   0.5625000   0.6875000), wk =   0.0234375
        k(   50) = (   0.1875000   0.6875000   0.6875000), wk =   0.0117188
        k(   51) = (   0.3125000   0.3125000   0.3125000), wk =   0.0039062
        k(   52) = (   0.3125000   0.3125000   0.4375000), wk =   0.0117188
        k(   53) = (   0.3125000   0.3125000   0.5625000), wk =   0.0117188
        k(   54) = (   0.3125000   0.3125000   0.6875000), wk =   0.0117188
        k(   55) = (   0.3125000   0.4375000   0.4375000), wk =   0.0117188
        k(   56) = (   0.3125000   0.4375000   0.5625000), wk =   0.0234375
        k(   57) = (   0.3125000   0.4375000   0.6875000), wk =   0.0234375
        k(   58) = (   0.3125000   0.5625000   0.5625000), wk =   0.0117188
        k(   59) = (   0.4375000   0.4375000   0.4375000), wk =   0.0039062
        k(   60) = (   0.4375000   0.4375000   0.5625000), wk =   0.0117188

     Dense  grid:     5601 G-vectors     FFT dimensions: (  25,  25,  25)

     Smooth grid:     1067 G-vectors     FFT dimensions: (  15,  15,  15)

     Largest allocated arrays     est. size (Mb)     dimensions
        Kohn-Sham Wavefunctions         0.01 Mb     (      71,    9)
        NL pseudopotentials             0.02 Mb     (      71,   18)
        Each V/rho on FFT grid          0.25 Mb     (    8125,   2)
        Each G-vector array             0.02 Mb     (    2802)
        G-vector shells                 0.00 Mb     (     104)
     Largest temporary arrays     est. size (Mb)     dimensions
        Each subspace H/S matrix        0.00 Mb     (       9,    9)
        Each <psi_i|beta_j> matrix      0.00 Mb     (      18,    9)
        Arrays for rho mixing           0.99 Mb     (    8125,    8)

     Check: negative/imaginary core charge=   -0.000015    0.000000

     Initial potential from superposition of free atoms

     starting charge    9.99966, renormalised to   10.00000
     Starting wfc are    6 randomized atomic wfcs +    3 random wfc

     total cpu time spent up to now is        0.5 secs

     per-process dynamical memory:    23.2 Mb

     Self-consistent Calculation

     iteration #  1     ecut=    24.00 Ry     beta=0.70
     CG style diagonalization
     ethr =  1.00E-02,  avg # of iterations =  4.4

     total cpu time spent up to now is        1.3 secs

     total energy              =     -85.71334439 Ry
     Harris-Foulkes estimate   =     -85.36507163 Ry
     estimated scf accuracy    <       0.55211964 Ry

     total magnetization       =     1.84 Bohr mag/cell
     absolute magnetization    =     1.84 Bohr mag/cell

     iteration #  2     ecut=    24.00 Ry     beta=0.70
     CG style diagonalization
     ethr =  5.52E-03,  avg # of iterations =  5.0

     negative rho (up, down):  0.000E+00 1.147E-06

     total cpu time spent up to now is        2.1 secs

     total energy              =     -85.71989304 Ry
     Harris-Foulkes estimate   =     -85.65682246 Ry
     estimated scf accuracy    <       0.09115008 Ry

     total magnetization       =     1.20 Bohr mag/cell
     absolute magnetization    =     1.20 Bohr mag/cell

     iteration #  3     ecut=    24.00 Ry     beta=0.70
     CG style diagonalization
     ethr =  9.12E-04,  avg # of iterations =  6.3

     total cpu time spent up to now is        3.1 secs

     total energy              =     -85.76366853 Ry
     Harris-Foulkes estimate   =     -85.76404952 Ry
     estimated scf accuracy    <       0.00276924 Ry

     total magnetization       =     0.84 Bohr mag/cell
     absolute magnetization    =     0.85 Bohr mag/cell

     iteration #  4     ecut=    24.00 Ry     beta=0.70
     CG style diagonalization
     c_bands:  1 eigenvalues not converged
     c_bands:  1 eigenvalues not converged
     c_bands:  1 eigenvalues not converged
     ethr =  2.77E-05,  avg # of iterations =  8.9

     total cpu time spent up to now is        4.5 secs

     total energy              =     -85.79663146 Ry
     Harris-Foulkes estimate   =     -85.79664475 Ry
     estimated scf accuracy    <       0.00005817 Ry

     total magnetization       =     0.76 Bohr mag/cell
     absolute magnetization    =     0.78 Bohr mag/cell

     iteration #  5     ecut=    24.00 Ry     beta=0.70
     CG style diagonalization
     c_bands:  1 eigenvalues not converged
     c_bands:  1 eigenvalues not converged
     c_bands:  1 eigenvalues not converged
     c_bands:  1 eigenvalues not converged
     c_bands:  2 eigenvalues not converged
     c_bands:  2 eigenvalues not converged
     c_bands:  1 eigenvalues not converged
     c_bands:  1 eigenvalues not converged
     c_bands:  1 eigenvalues not converged
     c_bands:  1 eigenvalues not converged
     c_bands:  1 eigenvalues not converged
     c_bands:  1 eigenvalues not converged
     c_bands:  3 eigenvalues not converged
     c_bands:  1 eigenvalues not converged
     c_bands:  1 eigenvalues not converged
     c_bands:  1 eigenvalues not converged
     c_bands:  1 eigenvalues not converged
     c_bands:  1 eigenvalues not converged
     c_bands:  2 eigenvalues not converged
     c_bands:  1 eigenvalues not converged
     c_bands:  1 eigenvalues not converged
     c_bands:  1 eigenvalues not converged
     c_bands:  2 eigenvalues not converged
     c_bands:  1 eigenvalues not converged
     c_bands:  1 eigenvalues not converged
     ethr =  5.82E-07,  avg # of iterations = 12.1

     total cpu time spent up to now is        6.5 secs

     total energy              =     -85.80366909 Ry
     Harris-Foulkes estimate   =     -85.80366758 Ry
     estimated scf accuracy    <       0.00000299 Ry

     total magnetization       =     0.75 Bohr mag/cell
     absolute magnetization    =     0.77 Bohr mag/cell

     iteration #  6     ecut=    24.00 Ry     beta=0.70
     CG style diagonalization
     c_bands:  1 eigenvalues not converged
     c_bands:  1 eigenvalues not converged
     c_bands:  1 eigenvalues not converged
     c_bands:  1 eigenvalues not converged
     c_bands:  2 eigenvalues not converged
     c_bands:  2 eigenvalues not converged
     c_bands:  2 eigenvalues not converged
     c_bands:  1 eigenvalues not converged
     c_bands:  2 eigenvalues not converged
     c_bands:  2 eigenvalues not converged
     c_bands:  3 eigenvalues not converged
     c_bands:  2 eigenvalues not converged
     c_bands:  1 eigenvalues not converged
     c_bands:  1 eigenvalues not converged
     c_bands:  1 eigenvalues not converged
     c_bands:  1 eigenvalues not converged
     c_bands:  2 eigenvalues not converged
     c_bands:  2 eigenvalues not converged
     c_bands:  1 eigenvalues not converged
     c_bands:  1 eigenvalues not converged
     c_bands:  1 eigenvalues not converged
     c_bands:  1 eigenvalues not converged
     c_bands:  1 eigenvalues not converged
     c_bands:  2 eigenvalues not converged
     c_bands:  1 eigenvalues not converged
     c_bands:  1 eigenvalues not converged
     c_bands:  2 eigenvalues not converged
     c_bands:  1 eigenvalues not converged
     c_bands:  1 eigenvalues not converged
     c_bands:  3 eigenvalues not converged
     c_bands:  2 eigenvalues not converged
     c_bands:  3 eigenvalues not converged
     c_bands:  4 eigenvalues not converged
     c_bands:  2 eigenvalues not converged
     c_bands:  3 eigenvalues not converged
     c_bands:  2 eigenvalues not converged
     c_bands:  2 eigenvalues not converged
     c_bands:  2 eigenvalues not converged
     c_bands:  2 eigenvalues not converged
     c_bands:  1 eigenvalues not converged
     c_bands:  2 eigenvalues not converged
     c_bands:  2 eigenvalues not converged
     c_bands:  1 eigenvalues not converged
     c_bands:  2 eigenvalues not converged
     c_bands:  1 eigenvalues not converged
     c_bands:  2 eigenvalues not converged
     c_bands:  2 eigenvalues not converged
     c_bands:  1 eigenvalues not converged
     c_bands:  1 eigenvalues not converged
     c_bands:  1 eigenvalues not converged
     c_bands:  1 eigenvalues not converged
     c_bands:  1 eigenvalues not converged
     c_bands:  2 eigenvalues not converged
     c_bands:  1 eigenvalues not converged
     c_bands:  1 eigenvalues not converged
     c_bands:  1 eigenvalues not converged
     c_bands:  1 eigenvalues not converged
     c_bands:  1 eigenvalues not converged
     c_bands:  1 eigenvalues not converged
     c_bands:  1 eigenvalues not converged
     c_bands:  1 eigenvalues not converged
     c_bands:  2 eigenvalues not converged
     c_bands:  1 eigenvalues not converged
     c_bands:  3 eigenvalues not converged
     c_bands:  2 eigenvalues not converged
     c_bands:  3 eigenvalues not converged
     c_bands:  3 eigenvalues not converged
     c_bands:  1 eigenvalues not converged
     c_bands:  1 eigenvalues not converged
     c_bands:  3 eigenvalues not converged
     c_bands:  4 eigenvalues not converged
     ethr =  2.99E-08,  avg # of iterations = 14.2

     total cpu time spent up to now is        8.7 secs

     total energy              =     -85.80341623 Ry
     Harris-Foulkes estimate   =     -85.80341559 Ry
     estimated scf accuracy    <       0.00000209 Ry

     total magnetization       =     0.75 Bohr mag/cell
     absolute magnetization    =     0.77 Bohr mag/cell

     iteration #  7     ecut=    24.00 Ry     beta=0.70
     CG style diagonalization
     c_bands:  1 eigenvalues not converged
     c_bands:  1 eigenvalues not converged
     c_bands:  1 eigenvalues not converged
     c_bands:  1 eigenvalues not converged
     c_bands:  2 eigenvalues not converged
     c_bands:  2 eigenvalues not converged
     c_bands:  2 eigenvalues not converged
     c_bands:  1 eigenvalues not converged
     c_bands:  2 eigenvalues not converged
     c_bands:  2 eigenvalues not converged
     c_bands:  3 eigenvalues not converged
     c_bands:  2 eigenvalues not converged
     c_bands:  1 eigenvalues not converged
     c_bands:  1 eigenvalues not converged
     c_bands:  1 eigenvalues not converged
     c_bands:  1 eigenvalues not converged
     c_bands:  2 eigenvalues not converged
     c_bands:  2 eigenvalues not converged
     c_bands:  1 eigenvalues not converged
     c_bands:  1 eigenvalues not converged
     c_bands:  1 eigenvalues not converged
     c_bands:  1 eigenvalues not converged
     c_bands:  1 eigenvalues not converged
     c_bands:  3 eigenvalues not converged
     c_bands:  1 eigenvalues not converged
     c_bands:  1 eigenvalues not converged
     c_bands:  2 eigenvalues not converged
     c_bands:  2 eigenvalues not converged
     c_bands:  1 eigenvalues not converged
     c_bands:  3 eigenvalues not converged
     c_bands:  2 eigenvalues not converged
     c_bands:  3 eigenvalues not converged
     c_bands:  4 eigenvalues not converged
     c_bands:  2 eigenvalues not converged
     c_bands:  3 eigenvalues not converged
     c_bands:  2 eigenvalues not converged
     c_bands:  2 eigenvalues not converged
     c_bands:  2 eigenvalues not converged
     c_bands:  2 eigenvalues not converged
     c_bands:  2 eigenvalues not converged
     c_bands:  2 eigenvalues not converged
     c_bands:  2 eigenvalues not converged
     c_bands:  2 eigenvalues not converged
     c_bands:  2 eigenvalues not converged
     c_bands:  1 eigenvalues not converged
     c_bands:  2 eigenvalues not converged
     c_bands:  2 eigenvalues not converged
     c_bands:  1 eigenvalues not converged
     c_bands:  2 eigenvalues not converged
     c_bands:  1 eigenvalues not converged
     c_bands:  1 eigenvalues not converged
     c_bands:  1 eigenvalues not converged
     c_bands:  2 eigenvalues not converged
     c_bands:  1 eigenvalues not converged
     c_bands:  1 eigenvalues not converged
     c_bands:  1 eigenvalues not converged
     c_bands:  1 eigenvalues not converged
     c_bands:  1 eigenvalues not converged
     c_bands:  1 eigenvalues not converged
     c_bands:  1 eigenvalues not converged
     c_bands:  1 eigenvalues not converged
     c_bands:  1 eigenvalues not converged
     c_bands:  2 eigenvalues not converged
     c_bands:  1 eigenvalues not converged
     c_bands:  1 eigenvalues not converged
     c_bands:  1 eigenvalues not converged
     c_bands:  3 eigenvalues not converged
     c_bands:  2 eigenvalues not converged
     c_bands:  3 eigenvalues not converged
     c_bands:  3 eigenvalues not converged
     c_bands:  1 eigenvalues not converged
     c_bands:  1 eigenvalues not converged
     c_bands:  3 eigenvalues not converged
     c_bands:  4 eigenvalues not converged
     ethr =  2.09E-08,  avg # of iterations = 14.4

     total cpu time spent up to now is       11.0 secs

     total energy              =     -85.80345005 Ry
     Harris-Foulkes estimate   =     -85.80345002 Ry
     estimated scf accuracy    <       0.00000010 Ry

     total magnetization       =     0.75 Bohr mag/cell
     absolute magnetization    =     0.77 Bohr mag/cell

     iteration #  8     ecut=    24.00 Ry     beta=0.70
     CG style diagonalization
     c_bands:  1 eigenvalues not converged
     c_bands:  3 eigenvalues not converged
     c_bands:  1 eigenvalues not converged
     c_bands:  2 eigenvalues not converged
     c_bands:  3 eigenvalues not converged
     c_bands:  4 eigenvalues not converged
     c_bands:  2 eigenvalues not converged
     c_bands:  2 eigenvalues not converged
     c_bands:  2 eigenvalues not converged
     c_bands:  2 eigenvalues not converged
     c_bands:  3 eigenvalues not converged
     c_bands:  3 eigenvalues not converged
     c_bands:  2 eigenvalues not converged
     c_bands:  4 eigenvalues not converged
     c_bands:  2 eigenvalues not converged
     c_bands:  2 eigenvalues not converged
     c_bands:  4 eigenvalues not converged
     c_bands:  3 eigenvalues not converged
     c_bands:  2 eigenvalues not converged
     c_bands:  2 eigenvalues not converged
     c_bands:  2 eigenvalues not converged
     c_bands:  2 eigenvalues not converged
     c_bands:  2 eigenvalues not converged
     c_bands:  2 eigenvalues not converged
     c_bands:  1 eigenvalues not converged
     c_bands:  2 eigenvalues not converged
     c_bands:  3 eigenvalues not converged
     c_bands:  2 eigenvalues not converged
     c_bands:  2 eigenvalues not converged
     c_bands:  3 eigenvalues not converged
     c_bands:  2 eigenvalues not converged
     c_bands:  3 eigenvalues not converged
     c_bands:  1 eigenvalues not converged
     c_bands:  2 eigenvalues not converged
     c_bands:  3 eigenvalues not converged
     c_bands:  3 eigenvalues not converged
     c_bands:  4 eigenvalues not converged
     c_bands:  3 eigenvalues not converged
     c_bands:  2 eigenvalues not converged
     c_bands:  4 eigenvalues not converged
     c_bands:  3 eigenvalues not converged
     c_bands:  3 eigenvalues not converged
     c_bands:  2 eigenvalues not converged
     c_bands:  2 eigenvalues not converged
     c_bands:  1 eigenvalues not converged
     c_bands:  3 eigenvalues not converged
     c_bands:  2 eigenvalues not converged
     c_bands:  2 eigenvalues not converged
     c_bands:  4 eigenvalues not converged
     c_bands:  4 eigenvalues not converged
     c_bands:  3 eigenvalues not converged
     c_bands:  3 eigenvalues not converged
     c_bands:  3 eigenvalues not converged
     c_bands:  3 eigenvalues not converged
     c_bands:  3 eigenvalues not converged
     c_bands:  3 eigenvalues not converged
     c_bands:  2 eigenvalues not converged
     c_bands:  3 eigenvalues not converged
     c_bands:  3 eigenvalues not converged
     c_bands:  2 eigenvalues not converged
     c_bands:  2 eigenvalues not converged
     c_bands:  2 eigenvalues not converged
     c_bands:  2 eigenvalues not converged
     c_bands:  3 eigenvalues not converged
     c_bands:  2 eigenvalues not converged
     c_bands:  2 eigenvalues not converged
     c_bands:  2 eigenvalues not converged
     c_bands:  2 eigenvalues not converged
     c_bands:  1 eigenvalues not converged
     c_bands:  4 eigenvalues not converged
     c_bands:  3 eigenvalues not converged
     c_bands:  2 eigenvalues not converged
     c_bands:  2 eigenvalues not converged
     c_bands:  2 eigenvalues not converged
     c_bands:  2 eigenvalues not converged
     c_bands:  2 eigenvalues not converged
     c_bands:  2 eigenvalues not converged
     c_bands:  1 eigenvalues not converged
     c_bands:  1 eigenvalues not converged
     c_bands:  3 eigenvalues not converged
     c_bands:  2 eigenvalues not converged
     c_bands:  2 eigenvalues not converged
     c_bands:  3 eigenvalues not converged
     c_bands:  1 eigenvalues not converged
     c_bands:  2 eigenvalues not converged
     c_bands:  2 eigenvalues not converged
     c_bands:  1 eigenvalues not converged
     c_bands:  2 eigenvalues not converged
     c_bands:  3 eigenvalues not converged
     c_bands:  2 eigenvalues not converged
     c_bands:  3 eigenvalues not converged
     c_bands:  2 eigenvalues not converged
     c_bands:  1 eigenvalues not converged
     c_bands:  4 eigenvalues not converged
     c_bands:  3 eigenvalues not converged
     c_bands:  2 eigenvalues not converged
     c_bands:  2 eigenvalues not converged
     c_bands:  2 eigenvalues not converged
     c_bands:  1 eigenvalues not converged
     c_bands:  3 eigenvalues not converged
     c_bands:  2 eigenvalues not converged
     c_bands:  2 eigenvalues not converged
     c_bands:  3 eigenvalues not converged
     c_bands:  4 eigenvalues not converged
     c_bands:  3 eigenvalues not converged
     c_bands:  3 eigenvalues not converged
     c_bands:  3 eigenvalues not converged
     c_bands:  4 eigenvalues not converged
     ethr =  1.04E-09,  avg # of iterations = 16.0
 
     Magnetic moment per site:
     atom:    1    charge:    8.8587    magn:    0.7596    constr:    0.0000

     total cpu time spent up to now is       13.6 secs

     End of self-consistent calculation

     Number of k-points >= 100: set verbosity='high' to print the bands.

     the Fermi energy is    17.5370 ev

!    total energy              =     -85.80340277 Ry
     Harris-Foulkes estimate   =     -85.80340277 Ry
     estimated scf accuracy    <          3.7E-09 Ry

     The total energy is the sum of the following terms:

     one-electron contribution =      -0.72447365 Ry
     hartree contribution      =      15.67972448 Ry
     xc contribution           =     -30.00453333 Ry
     ewald contribution        =     -70.75404435 Ry
     smearing contrib. (-TS)   =      -0.00007592 Ry

     total magnetization       =     0.75 Bohr mag/cell
     absolute magnetization    =     0.77 Bohr mag/cell

     convergence has been achieved in   8 iterations

     Forces acting on atoms (Ry/au):

     atom    1 type  1   force =     0.00000000    0.00000000    0.00000000

     Total force =     0.000000     Total SCF correction =     0.000000


     entering subroutine stress ...

          total   stress  (Ry/bohr**3)                   (kbar)     P= 1925.73
   0.01309084  -0.00000000   0.00000000       1925.73     -0.00      0.00
  -0.00000000   0.01309084   0.00000000         -0.00   1925.73      0.00
  -0.00000000  -0.00000000   0.01309084         -0.00     -0.00   1925.73


     Writing output data file ni.save
 
     init_run     :      0.41s CPU      0.44s WALL (       1 calls)
     electrons    :     12.07s CPU     13.07s WALL (       1 calls)
     forces       :      0.04s CPU      0.04s WALL (       1 calls)
     stress       :      0.11s CPU      0.11s WALL (       1 calls)

     Called by init_run:
     wfcinit      :      0.10s CPU      0.12s WALL (       1 calls)
     potinit      :      0.01s CPU      0.01s WALL (       1 calls)

     Called by electrons:
     c_bands      :     11.47s CPU     12.45s WALL (       8 calls)
     sum_band     :      0.53s CPU      0.54s WALL (       8 calls)
     v_of_rho     :      0.02s CPU      0.02s WALL (       9 calls)
     newd         :      0.05s CPU      0.05s WALL (       9 calls)
     mix_rho      :      0.01s CPU      0.01s WALL (       8 calls)

     Called by c_bands:
     init_us_2    :      0.07s CPU      0.07s WALL (    2280 calls)
     ccgdiagg     :     10.82s CPU     11.75s WALL (     960 calls)
     wfcrot       :      0.67s CPU      0.73s WALL (     960 calls)

     Called by sum_band:
     sum_band:bec :      0.01s CPU      0.01s WALL (     960 calls)
     addusdens    :      0.12s CPU      0.12s WALL (       8 calls)

     Called by *cgdiagg:
     h_psi        :      7.24s CPU      7.81s WALL (   80572 calls)
     s_psi        :      0.77s CPU      0.86s WALL (  160184 calls)
     cdiaghg      :      0.06s CPU      0.05s WALL (     960 calls)

     Called by h_psi:
     add_vuspsi   :      0.41s CPU      0.48s WALL (   80572 calls)
     h_1psi       :      7.42s CPU      8.03s WALL (   79612 calls)

     General routines
     calbec       :      1.23s CPU      1.44s WALL (  161744 calls)
     fft          :      0.02s CPU      0.02s WALL (     153 calls)
     ffts         :      0.00s CPU      0.00s WALL (      34 calls)
     fftw         :      5.01s CPU      5.29s WALL (  185144 calls)
     interpolate  :      0.01s CPU      0.01s WALL (      34 calls)
     davcio       :      0.00s CPU      0.00s WALL (     120 calls)
 
     Parallel routines
     fft_scatter  :      1.33s CPU      1.46s WALL (  185331 calls)
 
     PWSCF        :    12.89s CPU        13.95s WALL

 
   This run was terminated on:  10:30:26  28Jan2016            

=------------------------------------------------------------------------------=
   JOB DONE.
=------------------------------------------------------------------------------=
