
     Program PWSCF v.5.3.0 (svn rev. 12078) starts on 28Jan2016 at 10:29:57 

     This program is part of the open-source Quantum ESPRESSO suite
     for quantum simulation of materials; please cite
         "P. Giannozzi et al., J. Phys.:Condens. Matter 21 395502 (2009);
          URL http://www.quantum-espresso.org", 
     in publications or presentations arising from this work. More details at
     http://www.quantum-espresso.org/quote

     Parallel version (MPI), running on     2 processors
     R & G space division:  proc/nbgrp/npool/nimage =       2
     Waiting for input...
     Reading input from standard input
     Message from routine read_cards :
     DEPRECATED: no units specified in ATOMIC_POSITIONS card
     Message from routine read_cards :
     ATOMIC_POSITIONS: units set to alat

     Current dimensions of program PWSCF are:
     Max number of different atomic species (ntypx) = 10
     Max number of k-points (npk) =  40000
     Max angular momentum in pseudopotentials (lmaxx) =  3
               file Ni.pz-nd-rrkjus.UPF: wavefunction(s)  4S renormalized

     Subspace diagonalization in iterative solution of the eigenvalue problem:
     a serial algorithm will be used

 
     Parallelization info
     --------------------
     sticks:   dense  smooth     PW     G-vecs:    dense   smooth      PW
     Min         210      69     27                 2799      531     129
     Max         211      70     28                 2802      536     130
     Sum         421     139     55                 5601     1067     259
 
     Generating pointlists ...
     new r_m :   0.2917 (alat units)  1.8901 (a.u.) for type    1


     bravais-lattice index     =            2
     lattice parameter (alat)  =       6.4800  a.u.
     unit-cell volume          =      68.0244 (a.u.)^3
     number of atoms/cell      =            1
     number of atomic types    =            1
     number of electrons       =        10.00
     number of Kohn-Sham states=            9
     kinetic-energy cutoff     =      24.0000  Ry
     charge density cutoff     =     288.0000  Ry
     convergence threshold     =      1.0E-08
     mixing beta               =       0.7000
     number of iterations used =            8  plain     mixing
     Exchange-correlation      =  SLA  PZ   NOGX NOGC ( 1  1  0  0 0 0)

     celldm(1)=   6.480000  celldm(2)=   0.000000  celldm(3)=   0.000000
     celldm(4)=   0.000000  celldm(5)=   0.000000  celldm(6)=   0.000000

     crystal axes: (cart. coord. in units of alat)
               a(1) = (  -0.500000   0.000000   0.500000 )  
               a(2) = (   0.000000   0.500000   0.500000 )  
               a(3) = (  -0.500000   0.500000   0.000000 )  

     reciprocal axes: (cart. coord. in units 2 pi/alat)
               b(1) = ( -1.000000 -1.000000  1.000000 )  
               b(2) = (  1.000000  1.000000  1.000000 )  
               b(3) = ( -1.000000  1.000000 -1.000000 )  


     PseudoPot. # 1 for Ni read from file:
     /home/nvarini/espresso_hdf5/espresso/pseudo/Ni.pz-nd-rrkjus.UPF
     MD5 check sum: bf64e4f20c74808dea28321d1ca350c3
     Pseudo is Ultrasoft + core correction, Zval = 10.0
     Generated by new atomic code, or converted to UPF format
     Using radial grid of 1203 points,  6 beta functions with: 
                l(1) =   0
                l(2) =   0
                l(3) =   1
                l(4) =   1
                l(5) =   2
                l(6) =   2
     Q(r) pseudized with 0 coefficients 


     atomic species   valence    mass     pseudopotential
        Ni            10.00    58.69000     Ni( 1.00)

     Starting magnetic structure 
     atomic species   magnetization
        Ni           0.700

     48 Sym. Ops., with inversion, found



   Cartesian axes

     site n.     atom                  positions (alat units)
         1           Ni  tau(   1) = (   0.0000000   0.0000000   0.0000000  )

     number of k points=    60  Methfessel-Paxton smearing, width (Ry)=  0.0200
                       cart. coord. in units 2pi/alat
        k(    1) = (   0.0625000   0.0625000   0.0625000), wk =   0.0039062
        k(    2) = (   0.0625000   0.0625000   0.1875000), wk =   0.0117188
        k(    3) = (   0.0625000   0.0625000   0.3125000), wk =   0.0117188
        k(    4) = (   0.0625000   0.0625000   0.4375000), wk =   0.0117188
        k(    5) = (   0.0625000   0.0625000   0.5625000), wk =   0.0117188
        k(    6) = (   0.0625000   0.0625000   0.6875000), wk =   0.0117188
        k(    7) = (   0.0625000   0.0625000   0.8125000), wk =   0.0117188
        k(    8) = (   0.0625000   0.0625000   0.9375000), wk =   0.0117188
        k(    9) = (   0.0625000   0.1875000   0.1875000), wk =   0.0117188
        k(   10) = (   0.0625000   0.1875000   0.3125000), wk =   0.0234375
        k(   11) = (   0.0625000   0.1875000   0.4375000), wk =   0.0234375
        k(   12) = (   0.0625000   0.1875000   0.5625000), wk =   0.0234375
        k(   13) = (   0.0625000   0.1875000   0.6875000), wk =   0.0234375
        k(   14) = (   0.0625000   0.1875000   0.8125000), wk =   0.0234375
        k(   15) = (   0.0625000   0.1875000   0.9375000), wk =   0.0234375
        k(   16) = (   0.0625000   0.3125000   0.3125000), wk =   0.0117188
        k(   17) = (   0.0625000   0.3125000   0.4375000), wk =   0.0234375
        k(   18) = (   0.0625000   0.3125000   0.5625000), wk =   0.0234375
        k(   19) = (   0.0625000   0.3125000   0.6875000), wk =   0.0234375
        k(   20) = (   0.0625000   0.3125000   0.8125000), wk =   0.0234375
        k(   21) = (   0.0625000   0.3125000   0.9375000), wk =   0.0234375
        k(   22) = (   0.0625000   0.4375000   0.4375000), wk =   0.0117188
        k(   23) = (   0.0625000   0.4375000   0.5625000), wk =   0.0234375
        k(   24) = (   0.0625000   0.4375000   0.6875000), wk =   0.0234375
        k(   25) = (   0.0625000   0.4375000   0.8125000), wk =   0.0234375
        k(   26) = (   0.0625000   0.4375000   0.9375000), wk =   0.0234375
        k(   27) = (   0.0625000   0.5625000   0.5625000), wk =   0.0117188
        k(   28) = (   0.0625000   0.5625000   0.6875000), wk =   0.0234375
        k(   29) = (   0.0625000   0.5625000   0.8125000), wk =   0.0234375
        k(   30) = (   0.0625000   0.6875000   0.6875000), wk =   0.0117188
        k(   31) = (   0.0625000   0.6875000   0.8125000), wk =   0.0234375
        k(   32) = (   0.0625000   0.8125000   0.8125000), wk =   0.0117188
        k(   33) = (   0.1875000   0.1875000   0.1875000), wk =   0.0039062
        k(   34) = (   0.1875000   0.1875000   0.3125000), wk =   0.0117188
        k(   35) = (   0.1875000   0.1875000   0.4375000), wk =   0.0117188
        k(   36) = (   0.1875000   0.1875000   0.5625000), wk =   0.0117188
        k(   37) = (   0.1875000   0.1875000   0.6875000), wk =   0.0117188
        k(   38) = (   0.1875000   0.1875000   0.8125000), wk =   0.0117188
        k(   39) = (   0.1875000   0.3125000   0.3125000), wk =   0.0117188
        k(   40) = (   0.1875000   0.3125000   0.4375000), wk =   0.0234375
        k(   41) = (   0.1875000   0.3125000   0.5625000), wk =   0.0234375
        k(   42) = (   0.1875000   0.3125000   0.6875000), wk =   0.0234375
        k(   43) = (   0.1875000   0.3125000   0.8125000), wk =   0.0234375
        k(   44) = (   0.1875000   0.4375000   0.4375000), wk =   0.0117188
        k(   45) = (   0.1875000   0.4375000   0.5625000), wk =   0.0234375
        k(   46) = (   0.1875000   0.4375000   0.6875000), wk =   0.0234375
        k(   47) = (   0.1875000   0.4375000   0.8125000), wk =   0.0234375
        k(   48) = (   0.1875000   0.5625000   0.5625000), wk =   0.0117188
        k(   49) = (   0.1875000   0.5625000   0.6875000), wk =   0.0234375
        k(   50) = (   0.1875000   0.6875000   0.6875000), wk =   0.0117188
        k(   51) = (   0.3125000   0.3125000   0.3125000), wk =   0.0039062
        k(   52) = (   0.3125000   0.3125000   0.4375000), wk =   0.0117188
        k(   53) = (   0.3125000   0.3125000   0.5625000), wk =   0.0117188
        k(   54) = (   0.3125000   0.3125000   0.6875000), wk =   0.0117188
        k(   55) = (   0.3125000   0.4375000   0.4375000), wk =   0.0117188
        k(   56) = (   0.3125000   0.4375000   0.5625000), wk =   0.0234375
        k(   57) = (   0.3125000   0.4375000   0.6875000), wk =   0.0234375
        k(   58) = (   0.3125000   0.5625000   0.5625000), wk =   0.0117188
        k(   59) = (   0.4375000   0.4375000   0.4375000), wk =   0.0039062
        k(   60) = (   0.4375000   0.4375000   0.5625000), wk =   0.0117188

     Dense  grid:     5601 G-vectors     FFT dimensions: (  25,  25,  25)

     Smooth grid:     1067 G-vectors     FFT dimensions: (  15,  15,  15)

     Largest allocated arrays     est. size (Mb)     dimensions
        Kohn-Sham Wavefunctions         0.01 Mb     (      71,    9)
        NL pseudopotentials             0.02 Mb     (      71,   18)
        Each V/rho on FFT grid          0.25 Mb     (    8125,   2)
        Each G-vector array             0.02 Mb     (    2802)
        G-vector shells                 0.00 Mb     (     104)
     Largest temporary arrays     est. size (Mb)     dimensions
        Auxiliary wavefunctions         0.04 Mb     (      71,   36)
        Each subspace H/S matrix        0.02 Mb     (      36,   36)
        Each <psi_i|beta_j> matrix      0.00 Mb     (      18,    9)
        Arrays for rho mixing           0.99 Mb     (    8125,    8)

     Check: negative/imaginary core charge=   -0.000015    0.000000

     Initial potential from superposition of free atoms

     starting charge    9.99966, renormalised to   10.00000
     Starting wfc are    6 randomized atomic wfcs +    3 random wfc

     total cpu time spent up to now is        0.5 secs

     per-process dynamical memory:    23.2 Mb

     Self-consistent Calculation

     iteration #  1     ecut=    24.00 Ry     beta=0.70
     Davidson diagonalization with overlap
     ethr =  1.00E-02,  avg # of iterations =  4.2

     total cpu time spent up to now is        1.1 secs

     total energy              =     -85.71525417 Ry
     Harris-Foulkes estimate   =     -85.36839745 Ry
     estimated scf accuracy    <       0.55123722 Ry

     total magnetization       =     1.85 Bohr mag/cell
     absolute magnetization    =     1.85 Bohr mag/cell

     iteration #  2     ecut=    24.00 Ry     beta=0.70
     Davidson diagonalization with overlap
     ethr =  5.51E-03,  avg # of iterations =  4.0

     negative rho (up, down):  0.000E+00 1.826E-06

     total cpu time spent up to now is        1.6 secs

     total energy              =     -85.72174285 Ry
     Harris-Foulkes estimate   =     -85.65834720 Ry
     estimated scf accuracy    <       0.09193250 Ry

     total magnetization       =     1.20 Bohr mag/cell
     absolute magnetization    =     1.20 Bohr mag/cell

     iteration #  3     ecut=    24.00 Ry     beta=0.70
     Davidson diagonalization with overlap
     ethr =  9.19E-04,  avg # of iterations =  4.5

     total cpu time spent up to now is        2.3 secs

     total energy              =     -85.76527650 Ry
     Harris-Foulkes estimate   =     -85.76562966 Ry
     estimated scf accuracy    <       0.00280022 Ry

     total magnetization       =     0.84 Bohr mag/cell
     absolute magnetization    =     0.85 Bohr mag/cell

     iteration #  4     ecut=    24.00 Ry     beta=0.70
     Davidson diagonalization with overlap
     ethr =  2.80E-05,  avg # of iterations =  6.3

     total cpu time spent up to now is        3.1 secs

     total energy              =     -85.79758068 Ry
     Harris-Foulkes estimate   =     -85.79759066 Ry
     estimated scf accuracy    <       0.00005068 Ry

     total magnetization       =     0.76 Bohr mag/cell
     absolute magnetization    =     0.78 Bohr mag/cell

     iteration #  5     ecut=    24.00 Ry     beta=0.70
     Davidson diagonalization with overlap
     ethr =  5.07E-07,  avg # of iterations =  7.6

     total cpu time spent up to now is        4.0 secs

     total energy              =     -85.80435794 Ry
     Harris-Foulkes estimate   =     -85.80435694 Ry
     estimated scf accuracy    <       0.00000130 Ry

     total magnetization       =     0.75 Bohr mag/cell
     absolute magnetization    =     0.77 Bohr mag/cell

     iteration #  6     ecut=    24.00 Ry     beta=0.70
     Davidson diagonalization with overlap
     ethr =  1.30E-08,  avg # of iterations =  7.7
 
     Magnetic moment per site:
     atom:    1    charge:    8.8587    magn:    0.7595    constr:    0.0000

     total cpu time spent up to now is        5.0 secs

     End of self-consistent calculation

     Number of k-points >= 100: set verbosity='high' to print the bands.

     the Fermi energy is    17.5371 ev

!    total energy              =     -85.80345904 Ry
     Harris-Foulkes estimate   =     -85.80345896 Ry
     estimated scf accuracy    <          3.1E-09 Ry

     The total energy is the sum of the following terms:

     one-electron contribution =      -0.72459337 Ry
     hartree contribution      =      15.67981614 Ry
     xc contribution           =     -30.00455671 Ry
     ewald contribution        =     -70.75404435 Ry
     smearing contrib. (-TS)   =      -0.00008074 Ry

     total magnetization       =     0.75 Bohr mag/cell
     absolute magnetization    =     0.77 Bohr mag/cell

     convergence has been achieved in   6 iterations

     Forces acting on atoms (Ry/au):

     atom    1 type  1   force =     0.00000000    0.00000000    0.00000000

     Total force =     0.000000     Total SCF correction =     0.000000


     entering subroutine stress ...

          total   stress  (Ry/bohr**3)                   (kbar)     P= 1925.79
   0.01309124  -0.00000000  -0.00000000       1925.79     -0.00     -0.00
  -0.00000000   0.01309124   0.00000000         -0.00   1925.79      0.00
  -0.00000000   0.00000000   0.01309124         -0.00      0.00   1925.79


     Writing output data file ni.save
 
     init_run     :      0.41s CPU      0.44s WALL (       1 calls)
     electrons    :      4.39s CPU      4.53s WALL (       1 calls)
     forces       :      0.04s CPU      0.04s WALL (       1 calls)
     stress       :      0.11s CPU      0.11s WALL (       1 calls)

     Called by init_run:
     wfcinit      :      0.10s CPU      0.12s WALL (       1 calls)
     potinit      :      0.00s CPU      0.01s WALL (       1 calls)

     Called by electrons:
     c_bands      :      3.93s CPU      4.07s WALL (       6 calls)
     sum_band     :      0.40s CPU      0.41s WALL (       6 calls)
     v_of_rho     :      0.01s CPU      0.02s WALL (       7 calls)
     newd         :      0.04s CPU      0.04s WALL (       7 calls)
     mix_rho      :      0.00s CPU      0.00s WALL (       6 calls)

     Called by c_bands:
     init_us_2    :      0.04s CPU      0.06s WALL (    1800 calls)
     cegterg      :      3.78s CPU      3.92s WALL (     720 calls)

     Called by sum_band:
     sum_band:bec :      0.00s CPU      0.00s WALL (     720 calls)
     addusdens    :      0.09s CPU      0.09s WALL (       6 calls)

     Called by *egterg:
     h_psi        :      2.03s CPU      2.18s WALL (    4954 calls)
     s_psi        :      0.07s CPU      0.07s WALL (    4954 calls)
     g_psi        :      0.01s CPU      0.02s WALL (    4114 calls)
     cdiaghg      :      1.44s CPU      1.32s WALL (    4834 calls)

     Called by h_psi:
     add_vuspsi   :      0.07s CPU      0.07s WALL (    4954 calls)

     General routines
     calbec       :      0.14s CPU      0.14s WALL (    6274 calls)
     fft          :      0.02s CPU      0.02s WALL (     119 calls)
     ffts         :      0.00s CPU      0.00s WALL (      26 calls)
     fftw         :      1.70s CPU      1.82s WALL (   67032 calls)
     interpolate  :      0.00s CPU      0.01s WALL (      26 calls)
     davcio       :      0.00s CPU      0.00s WALL (     120 calls)
 
     Parallel routines
     fft_scatter  :      0.46s CPU      0.50s WALL (   67177 calls)
 
     PWSCF        :     5.22s CPU         5.41s WALL

 
   This run was terminated on:  10:30: 3  28Jan2016            

=------------------------------------------------------------------------------=
   JOB DONE.
=------------------------------------------------------------------------------=
