
     Program PWSCF v.5.3.0 (svn rev. 12078) starts on 28Jan2016 at 10:30: 4 

     This program is part of the open-source Quantum ESPRESSO suite
     for quantum simulation of materials; please cite
         "P. Giannozzi et al., J. Phys.:Condens. Matter 21 395502 (2009);
          URL http://www.quantum-espresso.org", 
     in publications or presentations arising from this work. More details at
     http://www.quantum-espresso.org/quote

     Parallel version (MPI), running on     2 processors
     R & G space division:  proc/nbgrp/npool/nimage =       2
     Waiting for input...
     Reading input from standard input
     Message from routine read_cards :
     DEPRECATED: no units specified in ATOMIC_POSITIONS card
     Message from routine read_cards :
     ATOMIC_POSITIONS: units set to alat

     Current dimensions of program PWSCF are:
     Max number of different atomic species (ntypx) = 10
     Max number of k-points (npk) =  40000
     Max angular momentum in pseudopotentials (lmaxx) =  3

     Atomic positions and unit cell read from directory:
     /home/nvarini/espresso_hdf5/espresso/tempdir/silicon.save/
 

     Subspace diagonalization in iterative solution of the eigenvalue problem:
     a serial algorithm will be used

 
     Parallelization info
     --------------------
     sticks:   dense  smooth     PW     G-vecs:    dense   smooth      PW
     Min         126     126     45                 1365     1365     304
     Max         127     127     46                 1368     1368     305
     Sum         253     253     91                 2733     2733     609
 


     bravais-lattice index     =            2
     lattice parameter (alat)  =      10.2000  a.u.
     unit-cell volume          =     265.3020 (a.u.)^3
     number of atoms/cell      =            2
     number of atomic types    =            1
     number of electrons       =         8.00
     number of Kohn-Sham states=            8
     kinetic-energy cutoff     =      18.0000  Ry
     charge density cutoff     =      72.0000  Ry
     Exchange-correlation      =  SLA  PZ   NOGX NOGC ( 1  1  0  0 0 0)

     celldm(1)=  10.200000  celldm(2)=   0.000000  celldm(3)=   0.000000
     celldm(4)=   0.000000  celldm(5)=   0.000000  celldm(6)=   0.000000

     crystal axes: (cart. coord. in units of alat)
               a(1) = (  -0.500000   0.000000   0.500000 )  
               a(2) = (   0.000000   0.500000   0.500000 )  
               a(3) = (  -0.500000   0.500000   0.000000 )  

     reciprocal axes: (cart. coord. in units 2 pi/alat)
               b(1) = ( -1.000000 -1.000000  1.000000 )  
               b(2) = (  1.000000  1.000000  1.000000 )  
               b(3) = ( -1.000000  1.000000 -1.000000 )  


     PseudoPot. # 1 for Si read from file:
     /home/nvarini/espresso_hdf5/espresso/pseudo/Si.pz-vbc.UPF
     MD5 check sum: 6dfa03ddd5817404712e03e4d12deb78
     Pseudo is Norm-conserving, Zval =  4.0
     Generated by new atomic code, or converted to UPF format
     Using radial grid of  431 points,  2 beta functions with: 
                l(1) =   0
                l(2) =   1

     atomic species   valence    mass     pseudopotential
        Si             4.00    28.08600     Si( 1.00)

     48 Sym. Ops., with inversion, found (24 have fractional translation)



   Cartesian axes

     site n.     atom                  positions (alat units)
         1           Si  tau(   1) = (   0.0000000   0.0000000   0.0000000  )
         2           Si  tau(   2) = (   0.2500000   0.2500000   0.2500000  )

     number of k points=    28
                       cart. coord. in units 2pi/alat
        k(    1) = (   0.0000000   0.0000000   0.0000000), wk =   0.0714286
        k(    2) = (   0.0000000   0.0000000   0.1000000), wk =   0.0714286
        k(    3) = (   0.0000000   0.0000000   0.2000000), wk =   0.0714286
        k(    4) = (   0.0000000   0.0000000   0.3000000), wk =   0.0714286
        k(    5) = (   0.0000000   0.0000000   0.4000000), wk =   0.0714286
        k(    6) = (   0.0000000   0.0000000   0.5000000), wk =   0.0714286
        k(    7) = (   0.0000000   0.0000000   0.6000000), wk =   0.0714286
        k(    8) = (   0.0000000   0.0000000   0.7000000), wk =   0.0714286
        k(    9) = (   0.0000000   0.0000000   0.8000000), wk =   0.0714286
        k(   10) = (   0.0000000   0.0000000   0.9000000), wk =   0.0714286
        k(   11) = (   0.0000000   0.0000000   1.0000000), wk =   0.0714286
        k(   12) = (   0.0000000   0.0000000   0.0000000), wk =   0.0714286
        k(   13) = (   0.0000000   0.1000000   0.1000000), wk =   0.0714286
        k(   14) = (   0.0000000   0.2000000   0.2000000), wk =   0.0714286
        k(   15) = (   0.0000000   0.3000000   0.3000000), wk =   0.0714286
        k(   16) = (   0.0000000   0.4000000   0.4000000), wk =   0.0714286
        k(   17) = (   0.0000000   0.5000000   0.5000000), wk =   0.0714286
        k(   18) = (   0.0000000   0.6000000   0.6000000), wk =   0.0714286
        k(   19) = (   0.0000000   0.7000000   0.7000000), wk =   0.0714286
        k(   20) = (   0.0000000   0.8000000   0.8000000), wk =   0.0714286
        k(   21) = (   0.0000000   0.9000000   0.9000000), wk =   0.0714286
        k(   22) = (   0.0000000   1.0000000   1.0000000), wk =   0.0714286
        k(   23) = (   0.0000000   0.0000000   0.0000000), wk =   0.0714286
        k(   24) = (   0.1000000   0.1000000   0.1000000), wk =   0.0714286
        k(   25) = (   0.2000000   0.2000000   0.2000000), wk =   0.0714286
        k(   26) = (   0.3000000   0.3000000   0.3000000), wk =   0.0714286
        k(   27) = (   0.4000000   0.4000000   0.4000000), wk =   0.0714286
        k(   28) = (   0.5000000   0.5000000   0.5000000), wk =   0.0714286

     Dense  grid:     2733 G-vectors     FFT dimensions: (  20,  20,  20)

     Largest allocated arrays     est. size (Mb)     dimensions
        Kohn-Sham Wavefunctions         0.02 Mb     (     181,    8)
        NL pseudopotentials             0.02 Mb     (     181,    8)
        Each V/rho on FFT grid          0.06 Mb     (    4000)
        Each G-vector array             0.01 Mb     (    1365)
        G-vector shells                 0.00 Mb     (      65)
     Largest temporary arrays     est. size (Mb)     dimensions
        Each subspace H/S matrix        0.00 Mb     (       8,    8)
        Each <psi_i|beta_j> matrix      0.00 Mb     (       8,    8)

     The potential is recalculated from file :
     /home/nvarini/espresso_hdf5/espresso/tempdir/silicon.save/charge-density.dat

     Starting wfc are    8 randomized atomic wfcs

     Band Structure Calculation
     CG style diagonalization

     ethr =  1.25E-08,  avg # of iterations = 12.2

     total cpu time spent up to now is        0.7 secs

     End of band structure calculation

          k = 0.0000 0.0000 0.0000 (   331 PWs)   bands (ev):

    -6.1343   5.7957   5.7957   5.7957   8.5739   8.5739   8.5739   9.2742

          k = 0.0000 0.0000 0.1000 (   335 PWs)   bands (ev):

    -6.0918   5.5229   5.6304   5.6304   8.4705   8.7912   8.7912   9.5345

          k = 0.0000 0.0000 0.2000 (   335 PWs)   bands (ev):

    -5.9604   4.8778   5.2473   5.2473   8.2026   9.3346   9.3346  10.0840

          k = 0.0000 0.0000 0.3000 (   335 PWs)   bands (ev):

    -5.7428   4.0728   4.7960   4.7960   7.8510  10.0509  10.0509  10.3804

          k = 0.0000 0.0000 0.4000 (   347 PWs)   bands (ev):

    -5.4400   3.2029   4.3531   4.3531   7.4903   9.9466  10.8514  10.8514

          k = 0.0000 0.0000 0.5000 (   343 PWs)   bands (ev):

    -5.0518   2.3123   3.9546   3.9546   7.1653   9.2207  11.7138  11.7138

          k = 0.0000 0.0000 0.6000 (   339 PWs)   bands (ev):

    -4.5814   1.4162   3.6165   3.6165   6.9040   8.5064  12.6100  12.6100

          k = 0.0000 0.0000 0.7000 (   335 PWs)   bands (ev):

    -4.0337   0.5257   3.3470   3.3470   6.7250   7.8908  13.5313  13.5313

          k = 0.0000 0.0000 0.8000 (   335 PWs)   bands (ev):

    -3.4161  -0.3437   3.1522   3.1522   6.6363   7.3937  14.4742  14.4742

          k = 0.0000 0.0000 0.9000 (   342 PWs)   bands (ev):

    -2.7302  -1.1855   3.0337   3.0337   6.6495   7.0242  15.4078  15.4078

          k = 0.0000 0.0000 1.0000 (   342 PWs)   bands (ev):

    -1.9838  -1.9838   2.9941   2.9941   6.7775   6.7775  16.0482  16.0482

          k = 0.0000 0.0000 0.0000 (   331 PWs)   bands (ev):

    -6.1343   5.7957   5.7957   5.7957   8.5739   8.5739   8.5739   9.2742

          k = 0.0000 0.1000 0.1000 (   333 PWs)   bands (ev):

    -6.0474   5.0828   5.4660   5.7554   8.6647   8.7191   8.7964   9.8818

          k = 0.0000 0.2000 0.2000 (   335 PWs)   bands (ev):

    -5.7867   3.8077   4.6895   5.6188   8.9369   8.9688   9.0795  11.1100

          k = 0.0000 0.3000 0.3000 (   333 PWs)   bands (ev):

    -5.3598   2.5273   3.7687   5.3568   9.0562   9.3884   9.5956  11.6491

          k = 0.0000 0.4000 0.4000 (   333 PWs)   bands (ev):

    -4.7836   1.3669   2.8817   4.9677   8.9145  10.0138  10.2647  11.7599

          k = 0.0000 0.5000 0.5000 (   339 PWs)   bands (ev):

    -4.0877   0.3595   2.1365   4.4971   8.4962  10.8118  11.0828  12.1459

          k = 0.0000 0.6000 0.6000 (   343 PWs)   bands (ev):

    -3.3379  -0.4756   1.6286   4.0187   7.9683  11.7750  12.0094  12.8318

          k = 0.0000 0.7000 0.7000 (   351 PWs)   bands (ev):

    -2.6616  -1.1346   1.4838   3.5946   7.4755  11.1689  12.8843  13.3596

          k = 0.0000 0.8000 0.8000 (   341 PWs)   bands (ev):

    -2.2132  -1.6054   1.8256   3.2682   7.0960   9.1839  14.1151  14.6846

          k = 0.0000 0.9000 0.9000 (   346 PWs)   bands (ev):

    -2.0265  -1.8892   2.5358   3.0636   6.8578   7.5317  15.3424  15.5942

          k = 0.0000 1.0000 1.0000 (   342 PWs)   bands (ev):

    -1.9838  -1.9838   2.9941   2.9941   6.7775   6.7775  16.0482  16.0482

          k = 0.0000 0.0000 0.0000 (   331 PWs)   bands (ev):

    -6.1343   5.7957   5.7957   5.7957   8.5739   8.5739   8.5739   9.2742

          k = 0.1000 0.1000 0.1000 (   335 PWs)   bands (ev):

    -6.0044   4.6878   5.6058   5.6058   8.5637   8.8568   8.8568  10.1806

          k = 0.2000 0.2000 0.2000 (   332 PWs)   bands (ev):

    -5.6165   2.8464   5.2345   5.2345   8.2122   9.3658   9.3658  11.9329

          k = 0.3000 0.3000 0.3000 (   344 PWs)   bands (ev):

    -5.0019   1.0607   4.9017   4.9017   7.8462   9.5669   9.5669  13.5737

          k = 0.4000 0.4000 0.4000 (   344 PWs)   bands (ev):

    -4.2541  -0.4134   4.6878   4.6878   7.6060   9.4763   9.4763  13.9714

          k = 0.5000 0.5000 0.5000 (   344 PWs)   bands (ev):

    -3.8029  -1.1082   4.6147   4.6147   7.5186   9.4052   9.4052  13.8790

     Writing output data file silicon.save
 
     init_run     :      0.02s CPU      0.02s WALL (       1 calls)
     electrons    :      0.49s CPU      0.52s WALL (       1 calls)

     Called by init_run:
     wfcinit      :      0.00s CPU      0.00s WALL (       1 calls)
     potinit      :      0.00s CPU      0.00s WALL (       1 calls)

     Called by electrons:
     c_bands      :      0.49s CPU      0.52s WALL (       1 calls)
     v_of_rho     :      0.00s CPU      0.00s WALL (       1 calls)

     Called by c_bands:
     init_us_2    :      0.00s CPU      0.00s WALL (      28 calls)
     ccgdiagg     :      0.45s CPU      0.48s WALL (      33 calls)
     wfcrot       :      0.03s CPU      0.03s WALL (      33 calls)

     Called by sum_band:

     Called by *cgdiagg:
     h_psi        :      0.35s CPU      0.37s WALL (    2711 calls)
     cdiaghg      :      0.00s CPU      0.00s WALL (      33 calls)

     Called by h_psi:
     add_vuspsi   :      0.01s CPU      0.02s WALL (    2711 calls)
     h_1psi       :      0.33s CPU      0.36s WALL (    2678 calls)

     General routines
     calbec       :      0.04s CPU      0.05s WALL (    5389 calls)
     fft          :      0.00s CPU      0.00s WALL (       3 calls)
     fftw         :      0.28s CPU      0.28s WALL (    5884 calls)
     davcio       :      0.00s CPU      0.00s WALL (      28 calls)
 
     Parallel routines
     fft_scatter  :      0.07s CPU      0.07s WALL (    5887 calls)
 
     PWSCF        :     0.72s CPU         0.79s WALL

 
   This run was terminated on:  10:30: 5  28Jan2016            

=------------------------------------------------------------------------------=
   JOB DONE.
=------------------------------------------------------------------------------=
