
     Program PWSCF v.5.3.0 (svn rev. 12078) starts on 28Jan2016 at 10:30: 4 

     This program is part of the open-source Quantum ESPRESSO suite
     for quantum simulation of materials; please cite
         "P. Giannozzi et al., J. Phys.:Condens. Matter 21 395502 (2009);
          URL http://www.quantum-espresso.org", 
     in publications or presentations arising from this work. More details at
     http://www.quantum-espresso.org/quote

     Parallel version (MPI), running on     2 processors
     R & G space division:  proc/nbgrp/npool/nimage =       2
     Waiting for input...
     Reading input from standard input
     Message from routine read_cards :
     DEPRECATED: no units specified in ATOMIC_POSITIONS card
     Message from routine read_cards :
     ATOMIC_POSITIONS: units set to alat

     Current dimensions of program PWSCF are:
     Max number of different atomic species (ntypx) = 10
     Max number of k-points (npk) =  40000
     Max angular momentum in pseudopotentials (lmaxx) =  3

     Subspace diagonalization in iterative solution of the eigenvalue problem:
     a serial algorithm will be used

 
     Parallelization info
     --------------------
     sticks:   dense  smooth     PW     G-vecs:    dense   smooth      PW
     Min         126     126     42                 1365     1365     264
     Max         127     127     43                 1368     1368     267
     Sum         253     253     85                 2733     2733     531
 


     bravais-lattice index     =            2
     lattice parameter (alat)  =      10.2000  a.u.
     unit-cell volume          =     265.3020 (a.u.)^3
     number of atoms/cell      =            2
     number of atomic types    =            1
     number of electrons       =         8.00
     number of Kohn-Sham states=            4
     kinetic-energy cutoff     =      18.0000  Ry
     charge density cutoff     =      72.0000  Ry
     convergence threshold     =      1.0E-08
     mixing beta               =       0.7000
     number of iterations used =            8  plain     mixing
     Exchange-correlation      =  SLA  PZ   NOGX NOGC ( 1  1  0  0 0 0)

     celldm(1)=  10.200000  celldm(2)=   0.000000  celldm(3)=   0.000000
     celldm(4)=   0.000000  celldm(5)=   0.000000  celldm(6)=   0.000000

     crystal axes: (cart. coord. in units of alat)
               a(1) = (  -0.500000   0.000000   0.500000 )  
               a(2) = (   0.000000   0.500000   0.500000 )  
               a(3) = (  -0.500000   0.500000   0.000000 )  

     reciprocal axes: (cart. coord. in units 2 pi/alat)
               b(1) = ( -1.000000 -1.000000  1.000000 )  
               b(2) = (  1.000000  1.000000  1.000000 )  
               b(3) = ( -1.000000  1.000000 -1.000000 )  


     PseudoPot. # 1 for Si read from file:
     /home/nvarini/espresso_hdf5/espresso/pseudo/Si.pz-vbc.UPF
     MD5 check sum: 6dfa03ddd5817404712e03e4d12deb78
     Pseudo is Norm-conserving, Zval =  4.0
     Generated by new atomic code, or converted to UPF format
     Using radial grid of  431 points,  2 beta functions with: 
                l(1) =   0
                l(2) =   1

     atomic species   valence    mass     pseudopotential
        Si             4.00    28.08600     Si( 1.00)

     48 Sym. Ops., with inversion, found (24 have fractional translation)



   Cartesian axes

     site n.     atom                  positions (alat units)
         1           Si  tau(   1) = (   0.0000000   0.0000000   0.0000000  )
         2           Si  tau(   2) = (   0.2500000   0.2500000   0.2500000  )

     number of k points=    10
                       cart. coord. in units 2pi/alat
        k(    1) = (   0.1250000   0.1250000   0.1250000), wk =   0.0625000
        k(    2) = (   0.1250000   0.1250000   0.3750000), wk =   0.1875000
        k(    3) = (   0.1250000   0.1250000   0.6250000), wk =   0.1875000
        k(    4) = (   0.1250000   0.1250000   0.8750000), wk =   0.1875000
        k(    5) = (   0.1250000   0.3750000   0.3750000), wk =   0.1875000
        k(    6) = (   0.1250000   0.3750000   0.6250000), wk =   0.3750000
        k(    7) = (   0.1250000   0.3750000   0.8750000), wk =   0.3750000
        k(    8) = (   0.1250000   0.6250000   0.6250000), wk =   0.1875000
        k(    9) = (   0.3750000   0.3750000   0.3750000), wk =   0.0625000
        k(   10) = (   0.3750000   0.3750000   0.6250000), wk =   0.1875000

     Dense  grid:     2733 G-vectors     FFT dimensions: (  20,  20,  20)

     Largest allocated arrays     est. size (Mb)     dimensions
        Kohn-Sham Wavefunctions         0.01 Mb     (     181,    4)
        NL pseudopotentials             0.02 Mb     (     181,    8)
        Each V/rho on FFT grid          0.06 Mb     (    4000)
        Each G-vector array             0.01 Mb     (    1365)
        G-vector shells                 0.00 Mb     (      65)
     Largest temporary arrays     est. size (Mb)     dimensions
        Each subspace H/S matrix        0.00 Mb     (       4,    4)
        Each <psi_i|beta_j> matrix      0.00 Mb     (       8,    4)
        Arrays for rho mixing           0.49 Mb     (    4000,    8)

     Initial potential from superposition of free atoms

     starting charge    7.99901, renormalised to    8.00000
     Starting wfc are    8 randomized atomic wfcs

     total cpu time spent up to now is        0.0 secs

     per-process dynamical memory:    19.2 Mb

     Self-consistent Calculation

     iteration #  1     ecut=    18.00 Ry     beta=0.70
     CG style diagonalization
     ethr =  1.00E-02,  avg # of iterations =  3.0

     Threshold (ethr) on eigenvalues was too large:
     Diagonalizing with lowered threshold

     CG style diagonalization
     ethr =  9.31E-05,  avg # of iterations =  4.3

     total cpu time spent up to now is        0.1 secs

     total energy              =     -15.86129403 Ry
     Harris-Foulkes estimate   =     -15.86202857 Ry
     estimated scf accuracy    <       0.00745185 Ry

     iteration #  2     ecut=    18.00 Ry     beta=0.70
     CG style diagonalization
     ethr =  9.31E-05,  avg # of iterations =  5.2

     total cpu time spent up to now is        0.1 secs

     total energy              =     -15.85706111 Ry
     Harris-Foulkes estimate   =     -15.85713792 Ry
     estimated scf accuracy    <       0.00067067 Ry

     iteration #  3     ecut=    18.00 Ry     beta=0.70
     CG style diagonalization
     ethr =  8.38E-06,  avg # of iterations =  6.5

     total cpu time spent up to now is        0.2 secs

     End of self-consistent calculation

          k = 0.1250 0.1250 0.1250 (   335 PWs)   bands (ev):

    -5.9310   4.2423   5.5185   5.5185

          k = 0.1250 0.1250 0.3750 (   338 PWs)   bands (ev):

    -5.3931   2.6207   4.5186   4.5970

          k = 0.1250 0.1250 0.6250 (   337 PWs)   bands (ev):

    -4.3389   0.8945   3.1966   3.6365

          k = 0.1250 0.1250 0.8750 (   343 PWs)   bands (ev):

    -2.8373  -0.9980   2.4395   3.1628

          k = 0.1250 0.3750 0.3750 (   341 PWs)   bands (ev):

    -4.8836   1.2252   3.5530   5.0348

          k = 0.1250 0.3750 0.6250 (   340 PWs)   bands (ev):

    -3.9129   0.0031   2.5553   3.9191

          k = 0.1250 0.3750 0.8750 (   347 PWs)   bands (ev):

    -2.6643  -1.0994   1.8291   2.9105

          k = 0.1250 0.6250 0.6250 (   344 PWs)   bands (ev):

    -3.2094  -0.7978   1.8929   3.9488

          k = 0.3750 0.3750 0.3750 (   350 PWs)   bands (ev):

    -4.4418  -0.0896   4.7282   4.7282

          k = 0.3750 0.3750 0.6250 (   343 PWs)   bands (ev):

    -3.7156  -0.8910   3.5743   4.2658

     highest occupied level (ev):     5.5185

!    total energy              =     -15.85531459 Ry
     Harris-Foulkes estimate   =     -15.85531459 Ry
     estimated scf accuracy    <          5.4E-33 Ry

     The total energy is the sum of the following terms:

     one-electron contribution =       4.91681623 Ry
     hartree contribution      =       0.84922183 Ry
     xc contribution           =      -4.72159399 Ry
     ewald contribution        =     -16.89975867 Ry

     convergence has been achieved in   3 iterations

     Forces acting on atoms (Ry/au):

     atom    1 type  1   force =     0.00000000    0.00000000   -0.00000000
     atom    2 type  1   force =    -0.00000000   -0.00000000    0.00000000

     Total force =     0.000000     Total SCF correction =     0.000000


     entering subroutine stress ...

          total   stress  (Ry/bohr**3)                   (kbar)     P=    6.58
   0.00004471  -0.00000000   0.00000000          6.58     -0.00      0.00
  -0.00000000   0.00004471   0.00000000         -0.00      6.58      0.00
   0.00000000   0.00000000   0.00004471          0.00      0.00      6.58


     Writing output data file silicon.save
 
     init_run     :      0.03s CPU      0.03s WALL (       1 calls)
     electrons    :      0.14s CPU      0.15s WALL (       1 calls)
     forces       :      0.00s CPU      0.00s WALL (       1 calls)
     stress       :      0.01s CPU      0.01s WALL (       1 calls)

     Called by init_run:
     wfcinit      :      0.01s CPU      0.01s WALL (       1 calls)
     potinit      :      0.00s CPU      0.00s WALL (       1 calls)

     Called by electrons:
     c_bands      :      0.12s CPU      0.13s WALL (       4 calls)
     sum_band     :      0.01s CPU      0.01s WALL (       4 calls)
     v_of_rho     :      0.00s CPU      0.00s WALL (       4 calls)
     mix_rho      :      0.00s CPU      0.00s WALL (       4 calls)

     Called by c_bands:
     init_us_2    :      0.01s CPU      0.00s WALL (     110 calls)
     ccgdiagg     :      0.11s CPU      0.12s WALL (      40 calls)
     wfcrot       :      0.02s CPU      0.02s WALL (      30 calls)

     Called by sum_band:

     Called by *cgdiagg:
     h_psi        :      0.10s CPU      0.11s WALL (     715 calls)
     cdiaghg      :      0.00s CPU      0.00s WALL (      30 calls)

     Called by h_psi:
     add_vuspsi   :      0.00s CPU      0.00s WALL (     715 calls)
     h_1psi       :      0.08s CPU      0.09s WALL (     685 calls)

     General routines
     calbec       :      0.01s CPU      0.01s WALL (    1450 calls)
     fft          :      0.00s CPU      0.00s WALL (      22 calls)
     fftw         :      0.08s CPU      0.09s WALL (    1850 calls)
     davcio       :      0.00s CPU      0.00s WALL (      10 calls)
 
     Parallel routines
     fft_scatter  :      0.02s CPU      0.02s WALL (    1872 calls)
 
     PWSCF        :     0.26s CPU         0.28s WALL

 
   This run was terminated on:  10:30: 4  28Jan2016            

=------------------------------------------------------------------------------=
   JOB DONE.
=------------------------------------------------------------------------------=
