
     Program PHONON v.6.beta (svn rev. 12834M) starts on 25Aug2016 at 11:40:45 

     This program is part of the open-source Quantum ESPRESSO suite
     for quantum simulation of materials; please cite
         "P. Giannozzi et al., J. Phys.:Condens. Matter 21 395502 (2009);
          URL http://www.quantum-espresso.org", 
     in publications or presentations arising from this work. More details at
     http://www.quantum-espresso.org/quote
 
           HOST :    x86_64-pc-linux-gnu
           ARCH :    x86_64
             CC :    icc
            CPP :    cpp
            F90 :    ifort
            F77 :    ifort
         DFLAGS :    -D__INTEL -D__FFTW -D__MPI -D__PARA -D__HDF5
      BLAS LIBS :    -lmkl_intel_lp64  -lmkl_sequential -lmkl_core
    LAPACK LIBS :    
       FFT LIBS :    
      MASS LIBS :    

     Parallel version (MPI), running on     2 processors
     R & G space division:  proc/nbgrp/npool/nimage =       2

     Reading data from directory:
     /home/nvarini/espresso_hdf5/espresso/tempdir/7.3/alas.save

   Info: using nr1, nr2, nr3 values from input

   Info: using nr1, nr2, nr3 values from input

     IMPORTANT: XC functional enforced from input :
     Exchange-correlation      =  SLA  PZ   NOGX NOGC ( 1  1  0  0 0 0)
     Any further DFT definition will be discarded
     Please, verify this is what you really want

 
     Parallelization info
     --------------------
     sticks:   dense  smooth     PW     G-vecs:    dense   smooth      PW
     Min         120     120     42                 1221     1221     229
     Max         121     121     43                 1224     1224     230
     Sum         241     241     85                 2445     2445     459
 
        1 /   8 q-points for this run, from  7 to  7:
       N       xq(1)         xq(2)         xq(3) 
       1   0.000000000   0.000000000   0.000000000
       2  -0.250000000   0.250000000  -0.250000000
       3   0.500000000  -0.500000000   0.500000000
       4   0.000000000   0.500000000   0.000000000
       5   0.750000000  -0.250000000   0.750000000
       6   0.500000000   0.000000000   0.500000000
       7   0.000000000  -1.000000000   0.000000000
       8  -0.500000000  -1.000000000   0.000000000
 

     Calculation of q =    0.0000000  -1.0000000   0.0000000
 
     Parallelization info
     --------------------
     sticks:   dense  smooth     PW     G-vecs:    dense   smooth      PW
     Min         120     120     42                 1221     1221     264
     Max         121     121     43                 1224     1224     267
     Sum         241     241     85                 2445     2445     531
 


     bravais-lattice index     =            2
     lattice parameter (alat)  =      10.5000  a.u.
     unit-cell volume          =     289.4062 (a.u.)^3
     number of atoms/cell      =            2
     number of atomic types    =            2
     number of electrons       =         8.00
     number of Kohn-Sham states=            4
     kinetic-energy cutoff     =      16.0000  Ry
     charge density cutoff     =      64.0000  Ry
     Exchange-correlation      =  SLA  PZ   NOGX NOGC ( 1  1  0  0 0 0)

     celldm(1)=  10.500000  celldm(2)=   0.000000  celldm(3)=   0.000000
     celldm(4)=   0.000000  celldm(5)=   0.000000  celldm(6)=   0.000000

     crystal axes: (cart. coord. in units of alat)
               a(1) = (  -0.500000   0.000000   0.500000 )  
               a(2) = (   0.000000   0.500000   0.500000 )  
               a(3) = (  -0.500000   0.500000   0.000000 )  

     reciprocal axes: (cart. coord. in units 2 pi/alat)
               b(1) = ( -1.000000 -1.000000  1.000000 )  
               b(2) = (  1.000000  1.000000  1.000000 )  
               b(3) = ( -1.000000  1.000000 -1.000000 )  


     PseudoPot. # 1 for Al read from file:
     /home/nvarini/espresso_hdf5/espresso/pseudo/Al.pz-vbc.UPF
     MD5 check sum: 614279c88ff8d45c90147292d03ed420
     Pseudo is Norm-conserving, Zval =  3.0
     Generated by new atomic code, or converted to UPF format
     Using radial grid of  171 points,  2 beta functions with: 
                l(1) =   0
                l(2) =   1

     PseudoPot. # 2 for As read from file:
     /home/nvarini/espresso_hdf5/espresso/pseudo/As.pz-bhs.UPF
     MD5 check sum: 451cd3365afcfc94d28b1934951c34a8
     Pseudo is Norm-conserving, Zval =  5.0
     Generated by new atomic code, or converted to UPF format
     Using radial grid of  525 points,  2 beta functions with: 
                l(1) =   0
                l(2) =   1

     atomic species   valence    mass     pseudopotential
        Al             3.00    26.98000     Al( 1.00)
        As             5.00    74.92000     As( 1.00)

     24 Sym. Ops. (no inversion) found



   Cartesian axes

     site n.     atom                  positions (alat units)
         1           Al  tau(   1) = (   0.0000000   0.0000000   0.0000000  )
         2           As  tau(   2) = (   0.2500000   0.2500000   0.2500000  )

     number of k points=     6
                       cart. coord. in units 2pi/alat
        k(    1) = (   0.2500000   0.2500000   0.2500000), wk =   0.5000000
        k(    2) = (   0.2500000  -0.7500000   0.2500000), wk =   0.0000000
        k(    3) = (   0.2500000   0.2500000   0.7500000), wk =   1.0000000
        k(    4) = (   0.2500000  -0.7500000   0.7500000), wk =   0.0000000
        k(    5) = (   0.2500000   0.7500000   0.2500000), wk =   0.5000000
        k(    6) = (   0.2500000  -0.2500000   0.2500000), wk =   0.0000000

     Dense  grid:     2445 G-vectors     FFT dimensions: (  20,  20,  20)

     Estimated max dynamical RAM per process >       0.51Mb

     Estimated total allocated dynamical RAM >       1.02Mb

     The potential is recalculated from file :
     /home/nvarini/espresso_hdf5/espresso/tempdir/7.3/_ph0/alas.save/charge-density.hdf5

     Starting wfc are    8 atomic wfcs

     Band Structure Calculation
     Davidson diagonalization with overlap

     ethr =  1.25E-10,  avg # of iterations = 11.7

     total cpu time spent up to now is        0.1 secs

     End of band structure calculation

          k = 0.2500 0.2500 0.2500 (   311 PWs)   bands (ev):

    -6.3575   1.7035   4.6970   4.6970

          k = 0.2500-0.7500 0.2500 (   311 PWs)   bands (ev):

    -5.1819  -0.0415   2.3125   3.5086

          k = 0.2500 0.2500 0.7500 (   311 PWs)   bands (ev):

    -5.1819  -0.0415   2.3125   3.5086

          k = 0.2500-0.7500 0.7500 (   311 PWs)   bands (ev):

    -5.1819  -0.0415   2.3125   3.5086

          k = 0.2500 0.7500 0.2500 (   311 PWs)   bands (ev):

    -5.1819  -0.0415   2.3125   3.5086

          k = 0.2500-0.2500 0.2500 (   311 PWs)   bands (ev):

    -6.3575   1.7035   4.6970   4.6970

     highest occupied level (ev):     4.6970

     Writing output data file alas.save

                                                                                

     bravais-lattice index     =            2
     lattice parameter (alat)  =      10.5000  a.u.
     unit-cell volume          =     289.4062 (a.u.)^3
     number of atoms/cell      =            2
     number of atomic types    =            2
     kinetic-energy cut-off    =      16.0000  Ry
     charge density cut-off    =      64.0000  Ry
     convergence threshold     =      1.0E-12
     beta                      =       0.7000
     number of iterations used =            4
     Exchange-correlation      =  SLA  PZ   NOGX NOGC ( 1  1  0  0 0 0)


     celldm(1)=   10.50000  celldm(2)=    0.00000  celldm(3)=    0.00000
     celldm(4)=    0.00000  celldm(5)=    0.00000  celldm(6)=    0.00000

     crystal axes: (cart. coord. in units of alat)
               a(1) = ( -0.5000  0.0000  0.5000 )  
               a(2) = (  0.0000  0.5000  0.5000 )  
               a(3) = ( -0.5000  0.5000  0.0000 )  

     reciprocal axes: (cart. coord. in units 2 pi/alat)
               b(1) = ( -1.0000 -1.0000  1.0000 )  
               b(2) = (  1.0000  1.0000  1.0000 )  
               b(3) = ( -1.0000  1.0000 -1.0000 )  


     Atoms inside the unit cell: 

     Cartesian axes

     site n.  atom      mass           positions (alat units)
        1     Al  26.9800   tau(    1) = (    0.00000    0.00000    0.00000  )
        2     As  74.9200   tau(    2) = (    0.25000    0.25000    0.25000  )

     Computing dynamical matrix for 
                    q = (   0.0000000  -1.0000000   0.0000000 )
 
      9 Sym.Ops. (with q -> -q+G )


     G cutoff =  178.7306  (   1224 G-vectors)     FFT grid: ( 20, 20, 20)
     number of k points=     6

     PseudoPot. # 1 for Al read from file:
     /home/nvarini/espresso_hdf5/espresso/pseudo/Al.pz-vbc.UPF
     MD5 check sum: 614279c88ff8d45c90147292d03ed420
     Pseudo is Norm-conserving, Zval =  3.0
     Generated by new atomic code, or converted to UPF format
     Using radial grid of  171 points,  2 beta functions with: 
                l(1) =   0
                l(2) =   1

     PseudoPot. # 2 for As read from file:
     /home/nvarini/espresso_hdf5/espresso/pseudo/As.pz-bhs.UPF
     MD5 check sum: 451cd3365afcfc94d28b1934951c34a8
     Pseudo is Norm-conserving, Zval =  5.0
     Generated by new atomic code, or converted to UPF format
     Using radial grid of  525 points,  2 beta functions with: 
                l(1) =   0
                l(2) =   1

     Mode symmetry, D_2d (-42m) point group:


     Atomic displacements:
     There are   4 irreducible representations

     Representation     1      1 modes -A_1  X_1  W_1  Not done in this run

     Representation     2      1 modes -B_2  X_3  W_2  Not done in this run

     Representation     3      2 modes -E    X_5  W_3  To be done

     Representation     4      2 modes -E    X_5  W_3  Not done in this run

     Compute atoms:     2,


     PHONON       :     0.46s CPU         0.48s WALL



     Representation #  3 modes #   3  4

     Self-consistent Calculation

      iter #   1 total cpu time :     0.5 secs   av.it.:   6.0
      thresh= 1.000E-02 alpha_mix =  0.700 |ddv_scf|^2 =  3.666E-06

      iter #   2 total cpu time :     0.6 secs   av.it.:   9.5
      thresh= 1.915E-04 alpha_mix =  0.700 |ddv_scf|^2 =  8.340E-07

      iter #   3 total cpu time :     0.6 secs   av.it.:   9.2
      thresh= 9.132E-05 alpha_mix =  0.700 |ddv_scf|^2 =  1.088E-10

      iter #   4 total cpu time :     0.7 secs   av.it.:   9.3
      thresh= 1.043E-06 alpha_mix =  0.700 |ddv_scf|^2 =  1.844E-12

     Maximum CPU time exceeded

     max_seconds     =       0.50
     elapsed seconds =       0.81
 
     PHONON       :     0.64s CPU         1.11s WALL

     INITIALIZATION: 
     phq_setup    :      0.01s CPU      0.01s WALL (       1 calls)
     phq_init     :      0.01s CPU      0.01s WALL (       1 calls)
 
     phq_init     :      0.01s CPU      0.01s WALL (       1 calls)
     init_vloc    :      0.00s CPU      0.00s WALL (       2 calls)
     init_us_1    :      0.02s CPU      0.02s WALL (       2 calls)
 
     DYNAMICAL MATRIX:
     phqscf       :      0.18s CPU      0.63s WALL (       1 calls)
 
     phqscf       :      0.18s CPU      0.63s WALL (       2 calls)
     solve_linter :      0.18s CPU      0.63s WALL (       1 calls)
 
 
 
     phqscf       :      0.18s CPU      0.63s WALL (       3 calls)
     solve_linter :      0.18s CPU      0.63s WALL (       2 calls)
 
     solve_linter :      0.18s CPU      0.63s WALL (       3 calls)
     dvqpsi_us    :      0.00s CPU      0.00s WALL (       6 calls)
     ortho        :      0.00s CPU      0.00s WALL (      24 calls)
     cgsolve      :      0.11s CPU      0.11s WALL (      24 calls)
     incdrhoscf   :      0.01s CPU      0.01s WALL (      24 calls)
     vpsifft      :      0.01s CPU      0.01s WALL (      18 calls)
     dv_of_drho   :      0.00s CPU      0.00s WALL (       8 calls)
     mix_pot      :      0.00s CPU      0.00s WALL (       4 calls)
     psymdvscf    :      0.02s CPU      0.02s WALL (       4 calls)
 
     dvqpsi_us    :      0.00s CPU      0.00s WALL (       6 calls)
     dvqpsi_us_on :      0.00s CPU      0.00s WALL (       6 calls)
 
     cgsolve      :      0.11s CPU      0.11s WALL (      24 calls)
     ch_psi       :      0.10s CPU      0.11s WALL (     233 calls)
 
     ch_psi       :      0.10s CPU      0.11s WALL (     233 calls)
     last         :      0.01s CPU      0.01s WALL (     233 calls)
 
     add_vuspsi   :      0.00s CPU      0.00s WALL (     315 calls)
 
     incdrhoscf   :      0.01s CPU      0.01s WALL (      24 calls)
 
 
      General routines
     calbec       :      0.01s CPU      0.01s WALL (     560 calls)
     fft          :      0.00s CPU      0.00s WALL (      30 calls)
     ffts         :      0.00s CPU      0.00s WALL (       6 calls)
     fftw         :      0.12s CPU      0.12s WALL (    2718 calls)
     davcio       :      0.00s CPU      0.00s WALL (      98 calls)
     write_rec    :      0.01s CPU      0.45s WALL (       4 calls)
 
 
     PHONON       :     0.64s CPU         1.11s WALL

 
   This run was terminated on:  11:40:46  25Aug2016            

=------------------------------------------------------------------------------=
   JOB DONE.
=------------------------------------------------------------------------------=
