
     Program PHONON v.5.4.0 (svn rev. 12828M) starts on 23Aug2016 at 16:15:22 

     This program is part of the open-source Quantum ESPRESSO suite
     for quantum simulation of materials; please cite
         "P. Giannozzi et al., J. Phys.:Condens. Matter 21 395502 (2009);
          URL http://www.quantum-espresso.org", 
     in publications or presentations arising from this work. More details at
     http://www.quantum-espresso.org/quote
 
           HOST :    x86_64-pc-linux-gnu
           ARCH :    x86_64
             CC :    icc
            CPP :    cpp
            F90 :    ifort
            F77 :    ifort
         DFLAGS :    -D__INTEL -D__FFTW -D__MPI -D__PARA -D__HDF5
      BLAS LIBS :    -lmkl_intel_lp64  -lmkl_sequential -lmkl_core
    LAPACK LIBS :    
       FFT LIBS :    
      MASS LIBS :    

     Parallel version (MPI), running on     2 processors
     R & G space division:  proc/nbgrp/npool/nimage =       2

     Reading data from directory:
     /home/nvarini/espresso_hdf5/espresso/tempdir/2.3/_ph0/alas.save

   Info: using nr1, nr2, nr3 values from input

   Info: using nr1, nr2, nr3 values from input

     IMPORTANT: XC functional enforced from input :
     Exchange-correlation      =  SLA  PZ   NOGX NOGC ( 1  1  0  0 0 0)
     Any further DFT definition will be discarded
     Please, verify this is what you really want

 
     Parallelization info
     --------------------
     sticks:   dense  smooth     PW     G-vecs:    dense   smooth      PW
     Min         120     120     42                 1221     1221     264
     Max         121     121     43                 1224     1224     267
     Sum         241     241     85                 2445     2445     531
 
        1 /   8 q-points for this run, from  2 to  2:
       N       xq(1)         xq(2)         xq(3) 
       1   0.000000000   0.000000000   0.000000000
       2  -0.250000000   0.250000000  -0.250000000
       3   0.500000000  -0.500000000   0.500000000
       4   0.000000000   0.500000000   0.000000000
       5   0.750000000  -0.250000000   0.750000000
       6   0.500000000   0.000000000   0.500000000
       7   0.000000000  -1.000000000   0.000000000
       8  -0.500000000  -1.000000000   0.000000000
 

     Calculation of q =   -0.2500000   0.2500000  -0.2500000

     Bands found: reading from /home/nvarini/espresso_hdf5/espresso/tempdir/2.3/_ph0/

     Reading data from directory:
     /home/nvarini/espresso_hdf5/espresso/tempdir/2.3/_ph0/alas.save

   Info: using nr1, nr2, nr3 values from input

   Info: using nr1, nr2, nr3 values from input

     IMPORTANT: XC functional enforced from input :
     Exchange-correlation      =  SLA  PZ   NOGX NOGC ( 1  1  0  0 0 0)
     Any further DFT definition will be discarded
     Please, verify this is what you really want

 
     Parallelization info
     --------------------
     sticks:   dense  smooth     PW     G-vecs:    dense   smooth      PW
     Min         120     120     42                 1221     1221     264
     Max         121     121     43                 1224     1224     267
     Sum         241     241     85                 2445     2445     531
 

     Restart in Phonon calculation

                                                                                

     bravais-lattice index     =            2
     lattice parameter (alat)  =      10.5000  a.u.
     unit-cell volume          =     289.4062 (a.u.)^3
     number of atoms/cell      =            2
     number of atomic types    =            2
     kinetic-energy cut-off    =      16.0000  Ry
     charge density cut-off    =      64.0000  Ry
     convergence threshold     =      1.0E-12
     beta                      =       0.7000
     number of iterations used =            4
     Exchange-correlation      =  SLA  PZ   NOGX NOGC ( 1  1  0  0 0 0)


     celldm(1)=   10.50000  celldm(2)=    0.00000  celldm(3)=    0.00000
     celldm(4)=    0.00000  celldm(5)=    0.00000  celldm(6)=    0.00000

     crystal axes: (cart. coord. in units of alat)
               a(1) = ( -0.5000  0.0000  0.5000 )  
               a(2) = (  0.0000  0.5000  0.5000 )  
               a(3) = ( -0.5000  0.5000  0.0000 )  

     reciprocal axes: (cart. coord. in units 2 pi/alat)
               b(1) = ( -1.0000 -1.0000  1.0000 )  
               b(2) = (  1.0000  1.0000  1.0000 )  
               b(3) = ( -1.0000  1.0000 -1.0000 )  


     Atoms inside the unit cell: 

     Cartesian axes

     site n.  atom      mass           positions (alat units)
        1     Al  26.9800   tau(    1) = (    0.00000    0.00000    0.00000  )
        2     As  74.9200   tau(    2) = (    0.25000    0.25000    0.25000  )

     Computing dynamical matrix for 
                    q = (  -0.2500000   0.2500000  -0.2500000 )
 
      6 Sym.Ops. (no q -> -q+G )


     G cutoff =  178.7306  (   1224 G-vectors)     FFT grid: ( 20, 20, 20)
     number of k points=    20

     PseudoPot. # 1 for Al read from file:
     /home/nvarini/espresso_hdf5/espresso/pseudo/Al.pz-vbc.UPF
     MD5 check sum: 614279c88ff8d45c90147292d03ed420
     Pseudo is Norm-conserving, Zval =  3.0
     Generated by new atomic code, or converted to UPF format
     Using radial grid of  171 points,  2 beta functions with: 
                l(1) =   0
                l(2) =   1

     PseudoPot. # 2 for As read from file:
     /home/nvarini/espresso_hdf5/espresso/pseudo/As.pz-bhs.UPF
     MD5 check sum: 451cd3365afcfc94d28b1934951c34a8
     Pseudo is Norm-conserving, Zval =  5.0
     Generated by new atomic code, or converted to UPF format
     Using radial grid of  525 points,  2 beta functions with: 
                l(1) =   0
                l(2) =   1

     Mode symmetry, C_3v (3m)   point group:


     Atomic displacements:
     There are   4 irreducible representations

     Representation     1      1 modes -A_1  L_1  Not done in this run

     Representation     2      1 modes -A_1  L_1  Not done in this run

     Representation     3      2 modes -E    L_3  To be done

     Representation     4      2 modes -E    L_3  Not done in this run

     Compute atoms:     2,


     PHONON       :     0.83s CPU         0.84s WALL



     Representation #  3 modes #   3  4

     Self-consistent Calculation

      iter #   3 total cpu time :     1.0 secs   av.it.:   8.9
      thresh= 3.013E-05 alpha_mix =  0.700 |ddv_scf|^2 =  8.921E-11

      iter #   4 total cpu time :     1.1 secs   av.it.:   9.0
      thresh= 9.445E-07 alpha_mix =  0.700 |ddv_scf|^2 =  1.644E-12

      iter #   5 total cpu time :     1.2 secs   av.it.:   8.8
      thresh= 1.282E-07 alpha_mix =  0.700 |ddv_scf|^2 =  1.875E-14

     End of self-consistent calculation

     Convergence has been achieved 

     Not diagonalizing because representation    0 is not done
 
     PHONON       :     1.21s CPU         1.25s WALL

     INITIALIZATION: 
     phq_setup    :      0.01s CPU      0.01s WALL (       1 calls)
     phq_init     :      0.02s CPU      0.02s WALL (       1 calls)
 
     phq_init     :      0.02s CPU      0.02s WALL (       1 calls)
     init_vloc    :      0.00s CPU      0.00s WALL (       2 calls)
     init_us_1    :      0.02s CPU      0.02s WALL (       2 calls)
 
     DYNAMICAL MATRIX:
     phqscf       :      0.38s CPU      0.40s WALL (       1 calls)
     dynmatrix    :      0.00s CPU      0.00s WALL (       1 calls)
 
     phqscf       :      0.38s CPU      0.40s WALL (       1 calls)
     solve_linter :      0.37s CPU      0.40s WALL (       1 calls)
     drhodv       :      0.00s CPU      0.00s WALL (       1 calls)
 
 
 
     phqscf       :      0.38s CPU      0.40s WALL (       1 calls)
     solve_linter :      0.37s CPU      0.40s WALL (       1 calls)
 
     solve_linter :      0.37s CPU      0.40s WALL (       1 calls)
     ortho        :      0.00s CPU      0.00s WALL (      60 calls)
     cgsolve      :      0.28s CPU      0.29s WALL (      60 calls)
     incdrhoscf   :      0.03s CPU      0.03s WALL (      60 calls)
     vpsifft      :      0.02s CPU      0.03s WALL (      60 calls)
     dv_of_drho   :      0.00s CPU      0.00s WALL (       6 calls)
     mix_pot      :      0.00s CPU      0.00s WALL (       3 calls)
     psymdvscf    :      0.01s CPU      0.01s WALL (       3 calls)
 
 
     cgsolve      :      0.28s CPU      0.29s WALL (      60 calls)
     ch_psi       :      0.26s CPU      0.28s WALL (     641 calls)
 
     ch_psi       :      0.26s CPU      0.28s WALL (     641 calls)
     last         :      0.02s CPU      0.02s WALL (     641 calls)
 
     add_vuspsi   :      0.01s CPU      0.01s WALL (     641 calls)
 
     incdrhoscf   :      0.03s CPU      0.03s WALL (      60 calls)
 
 
      General routines
     calbec       :      0.02s CPU      0.03s WALL (    1402 calls)
     fft          :      0.00s CPU      0.00s WALL (      24 calls)
     ffts         :      0.00s CPU      0.00s WALL (       6 calls)
     fftw         :      0.24s CPU      0.25s WALL (    5402 calls)
     davcio       :      0.00s CPU      0.00s WALL (     218 calls)
     write_rec    :      0.00s CPU      0.01s WALL (       4 calls)
 
 
     PHONON       :     1.21s CPU         1.25s WALL

 
   This run was terminated on:  16:15:23  23Aug2016            

=------------------------------------------------------------------------------=
   JOB DONE.
=------------------------------------------------------------------------------=
