
     Program PWSCF v.5.4.0 (svn rev. 12828M) starts on 23Aug2016 at 14:34:34 

     This program is part of the open-source Quantum ESPRESSO suite
     for quantum simulation of materials; please cite
         "P. Giannozzi et al., J. Phys.:Condens. Matter 21 395502 (2009);
          URL http://www.quantum-espresso.org", 
     in publications or presentations arising from this work. More details at
     http://www.quantum-espresso.org/quote
 
           HOST :    x86_64-pc-linux-gnu
           ARCH :    x86_64
             CC :    icc
            CPP :    cpp
            F90 :    ifort
            F77 :    ifort
         DFLAGS :    -D__INTEL -D__FFTW -D__MPI -D__PARA -D__HDF5
      BLAS LIBS :    -lmkl_intel_lp64  -lmkl_sequential -lmkl_core
    LAPACK LIBS :    
       FFT LIBS :    
      MASS LIBS :    

     Parallel version (MPI), running on     2 processors
     R & G space division:  proc/nbgrp/npool/nimage =       2
     Waiting for input...
     Reading input from standard input

     Current dimensions of program PWSCF are:
     Max number of different atomic species (ntypx) = 10
     Max number of k-points (npk) =  40000
     Max angular momentum in pseudopotentials (lmaxx) =  3

     gamma-point specific algorithms are used

     Subspace diagonalization in iterative solution of the eigenvalue problem:
     a serial algorithm will be used

 
     Parallelization info
     --------------------
     sticks:   dense  smooth     PW     G-vecs:    dense   smooth      PW
     Min         303     303     72                 5681     5681     680
     Max         306     306     73                 5682     5682     685
     Sum         609     609    145                11363    11363    1365
 


     bravais-lattice index     =            1
     lattice parameter (alat)  =       8.0000  a.u.
     unit-cell volume          =     512.0000 (a.u.)^3
     number of atoms/cell      =           10
     number of atomic types    =            2
     number of electrons       =        22.00
     number of Kohn-Sham states=           11
     kinetic-energy cutoff     =      30.0000  Ry
     charge density cutoff     =     120.0000  Ry
     convergence threshold     =      1.0E-06
     mixing beta               =       0.7000
     number of iterations used =            8  plain     mixing
     Exchange-correlation      =  SLA  PW   TPSS TPSS ( 1  4  0  0 0 1)

     celldm(1)=   8.000000  celldm(2)=   0.000000  celldm(3)=   0.000000
     celldm(4)=   0.000000  celldm(5)=   0.000000  celldm(6)=   0.000000

     crystal axes: (cart. coord. in units of alat)
               a(1) = (   1.000000   0.000000   0.000000 )  
               a(2) = (   0.000000   1.000000   0.000000 )  
               a(3) = (   0.000000   0.000000   1.000000 )  

     reciprocal axes: (cart. coord. in units 2 pi/alat)
               b(1) = (  1.000000  0.000000  0.000000 )  
               b(2) = (  0.000000  1.000000  0.000000 )  
               b(3) = (  0.000000  0.000000  1.000000 )  


     PseudoPot. # 1 for H  read from file:
     /home/nvarini/espresso_hdf5/espresso/pseudo/H.tpss-mt.UPF
     MD5 check sum: 126d4c867e8dfb95b317e81eb842cc09
     Pseudo is Norm-conserving, Zval =  1.0
     Generated by new atomic code, or converted to UPF format
     Using radial grid of 1263 points,  0 beta functions with: 

     PseudoPot. # 2 for C  read from file:
     /home/nvarini/espresso_hdf5/espresso/pseudo/C.tpss-mt.UPF
     MD5 check sum: afa8afd3b77fc14b1decc40375b211d1
     Pseudo is Norm-conserving, Zval =  4.0
     Generated by new atomic code, or converted to UPF format
     Using radial grid of 1983 points,  1 beta functions with: 
                l(1) =   0

     atomic species   valence    mass     pseudopotential
        H              1.00     1.00783     H ( 1.00)
        C              4.00    12.00000     C ( 1.00)

     No symmetry found



   Cartesian axes

     site n.     atom                  positions (alat units)
         1           H   tau(   1) = (  -0.3396188  -0.3072775   0.2952175  )
         2           H   tau(   2) = (  -0.3641150   0.3114112   0.1191170  )
         3           H   tau(   3) = (   0.2545363  -0.3380175  -0.1311087  )
         4           H   tau(   4) = (   0.3886387  -0.2037337   0.2366638  )
         5           H   tau(   5) = (   0.3060188   0.3298075   0.0415838  )
         6           H   tau(   6) = (   0.1176044   0.2002337  -0.3229712  )
         7           C   tau(   7) = (  -0.1518812  -0.1636275   0.1645763  )
         8           C   tau(   8) = (  -0.1701575   0.1457675   0.1031486  )
         9           C   tau(   9) = (   0.1935900  -0.1791975   0.0638284  )
        10           C   tau(  10) = (   0.1368550   0.1713513  -0.0621193  )

     number of k points=     1
                       cart. coord. in units 2pi/alat
        k(    1) = (   0.0000000   0.0000000   0.0000000), wk =   2.0000000

     Dense  grid:     5682 G-vectors     FFT dimensions: (  27,  27,  27)

     Estimated max dynamical RAM per process >       3.49Mb

     Estimated total allocated dynamical RAM >       6.98Mb

     Initial potential from superposition of free atoms

     starting charge   21.99977, renormalised to   22.00000
     Starting wfc are   22 randomized atomic wfcs

     total cpu time spent up to now is        0.1 secs

     per-process dynamical memory:     9.3 Mb

     Self-consistent Calculation

     iteration #  1     ecut=    30.00 Ry     beta=0.70
     Davidson diagonalization with overlap
     ethr =  1.00E-02,  avg # of iterations = 11.0

     total cpu time spent up to now is        0.2 secs

     total energy              =     577.14696319 Ry
     Harris-Foulkes estimate   =    -686.19012326 Ry
     estimated scf accuracy    <    3125.60740497 Ry

     iteration #  2     ecut=    30.00 Ry     beta=0.70
     Davidson diagonalization with overlap
     ethr =  1.00E-02,  avg # of iterations = 16.0

     total cpu time spent up to now is        0.4 secs

     total energy              =     -80.33678174 Ry
     Harris-Foulkes estimate   =    -187.80514400 Ry
     estimated scf accuracy    <    1624.26711785 Ry

     iteration #  3     ecut=    30.00 Ry     beta=0.70
     Davidson diagonalization with overlap
     ethr =  1.00E-02,  avg # of iterations =  6.0

     total cpu time spent up to now is        0.4 secs

     total energy              =     -74.63846199 Ry
     Harris-Foulkes estimate   =     -90.63639338 Ry
     estimated scf accuracy    <     548.60427697 Ry

     iteration #  4     ecut=    30.00 Ry     beta=0.70
     Davidson diagonalization with overlap
     ethr =  1.00E-02,  avg # of iterations =  2.0

     total cpu time spent up to now is        0.5 secs

     total energy              =     -60.93373033 Ry
     Harris-Foulkes estimate   =     -75.21170275 Ry
     estimated scf accuracy    <     338.56244313 Ry

     iteration #  5     ecut=    30.00 Ry     beta=0.70
     Davidson diagonalization with overlap
     ethr =  1.00E-02,  avg # of iterations =  2.0

     total cpu time spent up to now is        0.5 secs

     total energy              =     -53.99398981 Ry
     Harris-Foulkes estimate   =     -61.12732963 Ry
     estimated scf accuracy    <     145.34648242 Ry

     iteration #  6     ecut=    30.00 Ry     beta=0.70
     Davidson diagonalization with overlap
     ethr =  1.00E-02,  avg # of iterations =  2.0

     total cpu time spent up to now is        0.6 secs

     total energy              =     -54.29719957 Ry
     Harris-Foulkes estimate   =     -54.23925715 Ry
     estimated scf accuracy    <      43.78314750 Ry

     iteration #  7     ecut=    30.00 Ry     beta=0.70
     Davidson diagonalization with overlap
     ethr =  1.00E-02,  avg # of iterations =  1.0

     total cpu time spent up to now is        0.6 secs

     total energy              =     -51.65417921 Ry
     Harris-Foulkes estimate   =     -54.30894106 Ry
     estimated scf accuracy    <      43.00411472 Ry

     iteration #  8     ecut=    30.00 Ry     beta=0.70
     Davidson diagonalization with overlap
     ethr =  1.00E-02,  avg # of iterations =  2.0

     total cpu time spent up to now is        0.7 secs

     total energy              =     -51.92221633 Ry
     Harris-Foulkes estimate   =     -51.91922494 Ry
     estimated scf accuracy    <       0.67655825 Ry

     iteration #  9     ecut=    30.00 Ry     beta=0.70
     Davidson diagonalization with overlap
     ethr =  3.08E-03,  avg # of iterations =  1.0

     total cpu time spent up to now is        0.7 secs

     total energy              =     -51.93134870 Ry
     Harris-Foulkes estimate   =     -51.93140605 Ry
     estimated scf accuracy    <       0.92106674 Ry

     iteration # 10     ecut=    30.00 Ry     beta=0.70
     Davidson diagonalization with overlap
     ethr =  3.08E-03,  avg # of iterations =  1.0

     total cpu time spent up to now is        0.8 secs

     total energy              =     -51.94854020 Ry
     Harris-Foulkes estimate   =     -51.93355008 Ry
     estimated scf accuracy    <       0.29291256 Ry

     iteration # 11     ecut=    30.00 Ry     beta=0.70
     Davidson diagonalization with overlap
     ethr =  1.33E-03,  avg # of iterations =  1.0

     total cpu time spent up to now is        0.8 secs

     total energy              =     -51.94837940 Ry
     Harris-Foulkes estimate   =     -51.95130093 Ry
     estimated scf accuracy    <       0.01135624 Ry

     iteration # 12     ecut=    30.00 Ry     beta=0.70
     Davidson diagonalization with overlap
     ethr =  5.16E-05,  avg # of iterations =  2.0

     total cpu time spent up to now is        0.8 secs

     total energy              =     -51.94923818 Ry
     Harris-Foulkes estimate   =     -51.94932539 Ry
     estimated scf accuracy    <       0.00084579 Ry

     iteration # 13     ecut=    30.00 Ry     beta=0.70
     Davidson diagonalization with overlap
     ethr =  3.84E-06,  avg # of iterations =  2.0

     total cpu time spent up to now is        0.9 secs

     total energy              =     -51.94928153 Ry
     Harris-Foulkes estimate   =     -51.94931800 Ry
     estimated scf accuracy    <       0.00044827 Ry

     iteration # 14     ecut=    30.00 Ry     beta=0.70
     Davidson diagonalization with overlap
     ethr =  2.04E-06,  avg # of iterations =  1.0

     total cpu time spent up to now is        0.9 secs

     total energy              =     -51.94929707 Ry
     Harris-Foulkes estimate   =     -51.94930472 Ry
     estimated scf accuracy    <       0.00008202 Ry

     iteration # 15     ecut=    30.00 Ry     beta=0.70
     Davidson diagonalization with overlap
     ethr =  3.73E-07,  avg # of iterations =  2.0

     total cpu time spent up to now is        1.0 secs

     total energy              =     -51.94930314 Ry
     Harris-Foulkes estimate   =     -51.94930391 Ry
     estimated scf accuracy    <       0.00001154 Ry

     iteration # 16     ecut=    30.00 Ry     beta=0.70
     Davidson diagonalization with overlap
     ethr =  5.25E-08,  avg # of iterations =  2.0

     total cpu time spent up to now is        1.0 secs

     total energy              =     -51.94930543 Ry
     Harris-Foulkes estimate   =     -51.94930522 Ry
     estimated scf accuracy    <       0.00000275 Ry

     iteration # 17     ecut=    30.00 Ry     beta=0.70
     Davidson diagonalization with overlap
     ethr =  1.25E-08,  avg # of iterations =  2.0

     total cpu time spent up to now is        1.1 secs

     End of self-consistent calculation

          k = 0.0000 0.0000 0.0000 (   683 PWs)   bands (ev):

   -16.0438 -10.0080  -9.5474  -7.9876  -4.9916  -4.1295  -3.5484  -2.6538
    -1.4001  -1.1569   0.4473

     highest occupied level (ev):     0.4473

!    total energy              =     -51.94930571 Ry
     Harris-Foulkes estimate   =     -51.94930568 Ry
     estimated scf accuracy    <       0.00000023 Ry

     The total energy is the sum of the following terms:

     one-electron contribution =     -33.02872074 Ry
     hartree contribution      =      24.10174763 Ry
     xc contribution           =     -18.36760307 Ry
     ewald contribution        =     -24.65472953 Ry

     convergence has been achieved in  17 iterations
     Warning: cannot save meta-gga kinetic terms: not implemented.

     Forces acting on atoms (Ry/au):

     atom    1 type  1   force =     0.09771805    0.00995365   -0.03190315
     atom    2 type  1   force =     0.00981076   -0.00716905    0.00183521
     atom    3 type  1   force =    -0.01836679    0.01533975   -0.01861989
     atom    4 type  1   force =    -0.06652732    0.02283896    0.00469813
     atom    5 type  1   force =    -0.00012121    0.00809762    0.00194915
     atom    6 type  1   force =    -0.00260993   -0.01225192   -0.01484137
     atom    7 type  2   force =    -0.04215742   -0.08869824    0.11743740
     atom    8 type  2   force =    -0.01088515    0.09329002    0.00992064
     atom    9 type  2   force =     0.02729993   -0.02724165   -0.06140030
     atom   10 type  2   force =     0.00583907   -0.01415914   -0.00907582

     Total force =     0.234697     Total SCF correction =     0.000283


     entering subroutine stress ...

     Message from routine stress:
     Meta-GGA and stress not implemented

     Writing output data file pwscf.save
     Warning: cannot save meta-gga kinetic terms: not implemented.
 
     init_run     :      0.11s CPU      0.11s WALL (       1 calls)
     electrons    :      0.93s CPU      0.93s WALL (       1 calls)
     forces       :      0.01s CPU      0.01s WALL (       1 calls)

     Called by init_run:
     wfcinit      :      0.01s CPU      0.01s WALL (       1 calls)
     potinit      :      0.03s CPU      0.03s WALL (       1 calls)

     Called by electrons:
     c_bands      :      0.46s CPU      0.46s WALL (      17 calls)
     sum_band     :      0.09s CPU      0.09s WALL (      17 calls)
     v_of_rho     :      0.36s CPU      0.36s WALL (      18 calls)
     mix_rho      :      0.03s CPU      0.03s WALL (      17 calls)

     Called by c_bands:
     init_us_2    :      0.00s CPU      0.00s WALL (      35 calls)
     regterg      :      0.46s CPU      0.46s WALL (      17 calls)

     Called by sum_band:

     Called by *egterg:
     h_psi        :      0.43s CPU      0.43s WALL (      74 calls)
     g_psi        :      0.00s CPU      0.00s WALL (      56 calls)
     rdiaghg      :      0.03s CPU      0.02s WALL (      73 calls)

     Called by h_psi:
     h_psi:pot    :      0.11s CPU      0.11s WALL (      74 calls)
     h_psi:calbec :      0.00s CPU      0.00s WALL (      74 calls)
     add_vuspsi   :      0.00s CPU      0.00s WALL (      74 calls)
     h_psi_meta   :      0.32s CPU      0.32s WALL (      74 calls)

     General routines
     calbec       :      0.00s CPU      0.00s WALL (      78 calls)
     fft          :      0.06s CPU      0.06s WALL (     250 calls)
     fftw         :      0.43s CPU      0.43s WALL (    3368 calls)
     interpolate  :      0.00s CPU      0.00s WALL (      18 calls)
 
     Parallel routines
     fft_scatter  :      0.11s CPU      0.11s WALL (    3618 calls)
 
     PWSCF        :     1.13s CPU         1.31s WALL

 
   This run was terminated on:  14:34:36  23Aug2016            

=------------------------------------------------------------------------------=
   JOB DONE.
=------------------------------------------------------------------------------=
