
     Program PWSCF v.5.4.0 (svn rev. 12496M) starts on 15Jun2016 at 11:22:22 

     This program is part of the open-source Quantum ESPRESSO suite
     for quantum simulation of materials; please cite
         "P. Giannozzi et al., J. Phys.:Condens. Matter 21 395502 (2009);
          URL http://www.quantum-espresso.org", 
     in publications or presentations arising from this work. More details at
     http://www.quantum-espresso.org/quote
 
           HOST :    @host@
           ARCH :    x86_64
             CC :    cc
            CPP :    cpp
            F90 :    mpif90
            F77 :    gfortran
         DFLAGS :    -D__GFORTRAN -D__STD_F95 -D__DFTI -D__MPI -D__PARA
      BLAS LIBS :    -lmkl_gf_lp64  -lmkl_sequential -lmkl_core
    LAPACK LIBS :    
       FFT LIBS :    
      MASS LIBS :    

     Parallel version (MPI), running on     2 processors
     R & G space division:  proc/nbgrp/npool/nimage =       2
     Waiting for input...
     Reading input from standard input

     Current dimensions of program PWSCF are:
     Max number of different atomic species (ntypx) = 10
     Max number of k-points (npk) =  40000
     Max angular momentum in pseudopotentials (lmaxx) =  3

     gamma-point specific algorithms are used

     Subspace diagonalization in iterative solution of the eigenvalue problem:
     a serial algorithm will be used

 
     Parallelization info
     --------------------
     sticks:   dense  smooth     PW     G-vecs:    dense   smooth      PW
     Min         303     303     72                 5681     5681     680
     Max         306     306     73                 5682     5682     685
     Sum         609     609    145                11363    11363    1365
     Tot         305     305     73
 


     bravais-lattice index     =            1
     lattice parameter (alat)  =       8.0000  a.u.
     unit-cell volume          =     512.0000 (a.u.)^3
     number of atoms/cell      =           10
     number of atomic types    =            2
     number of electrons       =        22.00
     number of Kohn-Sham states=           11
     kinetic-energy cutoff     =      30.0000  Ry
     charge density cutoff     =     120.0000  Ry
     convergence threshold     =      1.0E-06
     mixing beta               =       0.7000
     number of iterations used =            8  plain     mixing
     Exchange-correlation      =  SLA  PW   TPSS TPSS ( 1  4  0  0 0 1)

     celldm(1)=   8.000000  celldm(2)=   0.000000  celldm(3)=   0.000000
     celldm(4)=   0.000000  celldm(5)=   0.000000  celldm(6)=   0.000000

     crystal axes: (cart. coord. in units of alat)
               a(1) = (   1.000000   0.000000   0.000000 )  
               a(2) = (   0.000000   1.000000   0.000000 )  
               a(3) = (   0.000000   0.000000   1.000000 )  

     reciprocal axes: (cart. coord. in units 2 pi/alat)
               b(1) = (  1.000000  0.000000  0.000000 )  
               b(2) = (  0.000000  1.000000  0.000000 )  
               b(3) = (  0.000000  0.000000  1.000000 )  


     PseudoPot. # 1 for H  read from file:
     /home/nvarini/espresso_hdf5/espresso/pseudo/H.tpss-mt.UPF
     MD5 check sum: 126d4c867e8dfb95b317e81eb842cc09
     Pseudo is Norm-conserving, Zval =  1.0
     Generated by new atomic code, or converted to UPF format
     Using radial grid of 1263 points,  0 beta functions with: 

     PseudoPot. # 2 for C  read from file:
     /home/nvarini/espresso_hdf5/espresso/pseudo/C.tpss-mt.UPF
     MD5 check sum: afa8afd3b77fc14b1decc40375b211d1
     Pseudo is Norm-conserving, Zval =  4.0
     Generated by new atomic code, or converted to UPF format
     Using radial grid of 1983 points,  1 beta functions with: 
                l(1) =   0

     atomic species   valence    mass     pseudopotential
        H              1.00     1.00783     H ( 1.00)
        C              4.00    12.00000     C ( 1.00)

     No symmetry found



   Cartesian axes

     site n.     atom                  positions (alat units)
         1           H   tau(   1) = (  -0.3396188  -0.3072775   0.2952175  )
         2           H   tau(   2) = (  -0.3641150   0.3114112   0.1191170  )
         3           H   tau(   3) = (   0.2545363  -0.3380175  -0.1311087  )
         4           H   tau(   4) = (   0.3886387  -0.2037337   0.2366638  )
         5           H   tau(   5) = (   0.3060188   0.3298075   0.0415838  )
         6           H   tau(   6) = (   0.1176044   0.2002337  -0.3229712  )
         7           C   tau(   7) = (  -0.1518812  -0.1636275   0.1645763  )
         8           C   tau(   8) = (  -0.1701575   0.1457675   0.1031486  )
         9           C   tau(   9) = (   0.1935900  -0.1791975   0.0638284  )
        10           C   tau(  10) = (   0.1368550   0.1713513  -0.0621193  )

     number of k points=     1
                       cart. coord. in units 2pi/alat
        k(    1) = (   0.0000000   0.0000000   0.0000000), wk =   2.0000000

     Dense  grid:     5682 G-vectors     FFT dimensions: (  27,  27,  27)

     Largest allocated arrays     est. size (Mb)     dimensions
        Kohn-Sham Wavefunctions         0.06 Mb     (     343,   11)
        NL pseudopotentials             0.02 Mb     (     343,    4)
        Each V/rho on FFT grid          0.16 Mb     (   10206)
        Each G-vector array             0.02 Mb     (    2841)
        G-vector shells                 0.00 Mb     (     163)
     Largest temporary arrays     est. size (Mb)     dimensions
        Auxiliary wavefunctions         0.12 Mb     (     343,   44)
        Each subspace H/S matrix        0.01 Mb     (      44,   44)
        Each <psi_i|beta_j> matrix      0.00 Mb     (       4,   11)
        Arrays for rho mixing           1.25 Mb     (   10206,    8)

     Initial potential from superposition of free atoms

     starting charge   21.99977, renormalised to   22.00000
     Starting wfc are   22 randomized atomic wfcs

     total cpu time spent up to now is        0.1 secs

     per-process dynamical memory:     9.3 Mb

     Self-consistent Calculation

     iteration #  1     ecut=    30.00 Ry     beta=0.70
     Davidson diagonalization with overlap
     ethr =  1.00E-02,  avg # of iterations = 12.0

     total cpu time spent up to now is        0.2 secs

     total energy              =     577.26308319 Ry
     Harris-Foulkes estimate   =    -686.19320426 Ry
     estimated scf accuracy    <    3127.93545453 Ry

     iteration #  2     ecut=    30.00 Ry     beta=0.70
     Davidson diagonalization with overlap
     ethr =  1.00E-02,  avg # of iterations = 14.0

     total cpu time spent up to now is        0.4 secs

     total energy              =     -78.49726096 Ry
     Harris-Foulkes estimate   =    -187.69602100 Ry
     estimated scf accuracy    <    1632.28539210 Ry

     iteration #  3     ecut=    30.00 Ry     beta=0.70
     Davidson diagonalization with overlap
     ethr =  1.00E-02,  avg # of iterations =  5.0

     total cpu time spent up to now is        0.4 secs

     total energy              =     -74.78587907 Ry
     Harris-Foulkes estimate   =     -90.83939015 Ry
     estimated scf accuracy    <     550.41784404 Ry

     iteration #  4     ecut=    30.00 Ry     beta=0.70
     Davidson diagonalization with overlap
     ethr =  1.00E-02,  avg # of iterations =  3.0

     total cpu time spent up to now is        0.5 secs

     total energy              =     -61.84917067 Ry
     Harris-Foulkes estimate   =     -75.47507673 Ry
     estimated scf accuracy    <     342.09842980 Ry

     iteration #  5     ecut=    30.00 Ry     beta=0.70
     Davidson diagonalization with overlap
     ethr =  1.00E-02,  avg # of iterations =  2.0

     total cpu time spent up to now is        0.5 secs

     total energy              =     -54.22505028 Ry
     Harris-Foulkes estimate   =     -62.01983746 Ry
     estimated scf accuracy    <     158.07237416 Ry

     iteration #  6     ecut=    30.00 Ry     beta=0.70
     Davidson diagonalization with overlap
     ethr =  1.00E-02,  avg # of iterations =  2.0

     total cpu time spent up to now is        0.6 secs

     total energy              =     -54.63184616 Ry
     Harris-Foulkes estimate   =     -54.48727441 Ry
     estimated scf accuracy    <      47.75003613 Ry

     iteration #  7     ecut=    30.00 Ry     beta=0.70
     Davidson diagonalization with overlap
     ethr =  1.00E-02,  avg # of iterations =  1.0

     total cpu time spent up to now is        0.6 secs

     total energy              =     -51.64786065 Ry
     Harris-Foulkes estimate   =     -54.64341745 Ry
     estimated scf accuracy    <      48.46298339 Ry

     iteration #  8     ecut=    30.00 Ry     beta=0.70
     Davidson diagonalization with overlap
     ethr =  1.00E-02,  avg # of iterations =  2.0

     total cpu time spent up to now is        0.7 secs

     total energy              =     -51.92949684 Ry
     Harris-Foulkes estimate   =     -51.92214826 Ry
     estimated scf accuracy    <       1.15684092 Ry

     iteration #  9     ecut=    30.00 Ry     beta=0.70
     Davidson diagonalization with overlap
     ethr =  5.26E-03,  avg # of iterations =  1.0

     total cpu time spent up to now is        0.7 secs

     total energy              =     -51.92918740 Ry
     Harris-Foulkes estimate   =     -51.93945767 Ry
     estimated scf accuracy    <       1.34188387 Ry

     iteration # 10     ecut=    30.00 Ry     beta=0.70
     Davidson diagonalization with overlap
     ethr =  5.26E-03,  avg # of iterations =  1.0

     total cpu time spent up to now is        0.8 secs

     total energy              =     -51.94852857 Ry
     Harris-Foulkes estimate   =     -51.93352610 Ry
     estimated scf accuracy    <       0.27910613 Ry

     iteration # 11     ecut=    30.00 Ry     beta=0.70
     Davidson diagonalization with overlap
     ethr =  1.27E-03,  avg # of iterations =  1.0

     total cpu time spent up to now is        0.8 secs

     total energy              =     -51.94777998 Ry
     Harris-Foulkes estimate   =     -51.95189884 Ry
     estimated scf accuracy    <       0.01437118 Ry

     iteration # 12     ecut=    30.00 Ry     beta=0.70
     Davidson diagonalization with overlap
     ethr =  6.53E-05,  avg # of iterations =  2.0

     total cpu time spent up to now is        0.8 secs

     total energy              =     -51.94919689 Ry
     Harris-Foulkes estimate   =     -51.94940714 Ry
     estimated scf accuracy    <       0.00159108 Ry

     iteration # 13     ecut=    30.00 Ry     beta=0.70
     Davidson diagonalization with overlap
     ethr =  7.23E-06,  avg # of iterations =  2.0

     total cpu time spent up to now is        0.9 secs

     total energy              =     -51.94926167 Ry
     Harris-Foulkes estimate   =     -51.94930440 Ry
     estimated scf accuracy    <       0.00037460 Ry

     iteration # 14     ecut=    30.00 Ry     beta=0.70
     Davidson diagonalization with overlap
     ethr =  1.70E-06,  avg # of iterations =  2.0

     total cpu time spent up to now is        0.9 secs

     total energy              =     -51.94929883 Ry
     Harris-Foulkes estimate   =     -51.94930014 Ry
     estimated scf accuracy    <       0.00002737 Ry

     iteration # 15     ecut=    30.00 Ry     beta=0.70
     Davidson diagonalization with overlap
     ethr =  1.24E-07,  avg # of iterations =  3.0

     total cpu time spent up to now is        1.0 secs

     total energy              =     -51.94930475 Ry
     Harris-Foulkes estimate   =     -51.94930349 Ry
     estimated scf accuracy    <       0.00000734 Ry

     iteration # 16     ecut=    30.00 Ry     beta=0.70
     Davidson diagonalization with overlap
     ethr =  3.34E-08,  avg # of iterations =  2.0

     total cpu time spent up to now is        1.0 secs

     total energy              =     -51.94930556 Ry
     Harris-Foulkes estimate   =     -51.94930543 Ry
     estimated scf accuracy    <       0.00000283 Ry

     iteration # 17     ecut=    30.00 Ry     beta=0.70
     Davidson diagonalization with overlap
     ethr =  1.29E-08,  avg # of iterations =  2.0

     total cpu time spent up to now is        1.1 secs

     End of self-consistent calculation

          k = 0.0000 0.0000 0.0000 (   683 PWs)   bands (ev):

   -16.0444 -10.0084  -9.5474  -7.9877  -4.9916  -4.1297  -3.5488  -2.6539
    -1.4003  -1.1573   0.4470

     highest occupied level (ev):     0.4470

!    total energy              =     -51.94930568 Ry
     Harris-Foulkes estimate   =     -51.94930572 Ry
     estimated scf accuracy    <       0.00000032 Ry

     The total energy is the sum of the following terms:

     one-electron contribution =     -33.02944510 Ry
     hartree contribution      =      24.10258072 Ry
     xc contribution           =     -18.36771177 Ry
     ewald contribution        =     -24.65472953 Ry

     convergence has been achieved in  17 iterations
     Warning: cannot save meta-gga kinetic terms: not implemented.

     Forces acting on atoms (Ry/au):

     atom    1 type  1   force =     0.09771291    0.00994896   -0.03188982
     atom    2 type  1   force =     0.00979943   -0.00718145    0.00183415
     atom    3 type  1   force =    -0.01838033    0.01535071   -0.01860463
     atom    4 type  1   force =    -0.06652043    0.02284133    0.00469215
     atom    5 type  1   force =    -0.00012547    0.00808813    0.00196141
     atom    6 type  1   force =    -0.00261363   -0.01225421   -0.01481824
     atom    7 type  2   force =    -0.04208122   -0.08861704    0.11740025
     atom    8 type  2   force =    -0.01087698    0.09322691    0.00988712
     atom    9 type  2   force =     0.02727923   -0.02725040   -0.06139987
     atom   10 type  2   force =     0.00580649   -0.01415294   -0.00906253

     Total force =     0.234597     Total SCF correction =     0.000669


     entering subroutine stress ...

     Message from routine stress:
     Meta-GGA and stress not implemented

     Writing output data file pwscf.save
     Warning: cannot save meta-gga kinetic terms: not implemented.
 
     init_run     :      0.10s CPU      0.11s WALL (       1 calls)
     electrons    :      0.94s CPU      0.94s WALL (       1 calls)
     forces       :      0.01s CPU      0.01s WALL (       1 calls)

     Called by init_run:
     wfcinit      :      0.02s CPU      0.02s WALL (       1 calls)
     potinit      :      0.03s CPU      0.03s WALL (       1 calls)

     Called by electrons:
     c_bands      :      0.47s CPU      0.47s WALL (      17 calls)
     sum_band     :      0.08s CPU      0.08s WALL (      17 calls)
     v_of_rho     :      0.37s CPU      0.37s WALL (      18 calls)
     mix_rho      :      0.03s CPU      0.04s WALL (      17 calls)

     Called by c_bands:
     init_us_2    :      0.00s CPU      0.00s WALL (      35 calls)
     regterg      :      0.46s CPU      0.46s WALL (      17 calls)

     Called by sum_band:

     Called by *egterg:
     h_psi        :      0.43s CPU      0.43s WALL (      75 calls)
     g_psi        :      0.00s CPU      0.00s WALL (      57 calls)
     rdiaghg      :      0.03s CPU      0.02s WALL (      74 calls)

     Called by h_psi:
     add_vuspsi   :      0.00s CPU      0.00s WALL (      75 calls)
     h_psi_meta   :      0.32s CPU      0.32s WALL (      75 calls)

     General routines
     calbec       :      0.00s CPU      0.00s WALL (      79 calls)
     fft          :      0.06s CPU      0.06s WALL (     250 calls)
     fftw         :      0.45s CPU      0.43s WALL (    3392 calls)
     interpolate  :      0.00s CPU      0.00s WALL (      18 calls)
     davcio       :      0.00s CPU      0.00s WALL (       1 calls)
 
     Parallel routines
     fft_scatter  :      0.10s CPU      0.11s WALL (    3642 calls)
 
     PWSCF        :     1.13s CPU         1.13s WALL

 
   This run was terminated on:  11:22:23  15Jun2016            

=------------------------------------------------------------------------------=
   JOB DONE.
=------------------------------------------------------------------------------=
