
     Program PWSCF v.5.4.0 (svn rev. 12547M) starts on 29Jun2016 at 17:52:39 

     This program is part of the open-source Quantum ESPRESSO suite
     for quantum simulation of materials; please cite
         "P. Giannozzi et al., J. Phys.:Condens. Matter 21 395502 (2009);
          URL http://www.quantum-espresso.org", 
     in publications or presentations arising from this work. More details at
     http://www.quantum-espresso.org/quote
 
           HOST :    x86_64-pc-linux-gnu
           ARCH :    x86_64
             CC :    icc
            CPP :    cpp
            F90 :    gfortran
            F77 :    gfortran
         DFLAGS :    -D__GFORTRAN -D__STD_F95 -D__DFTI -D__MPI -D__PARA -D__HDF5
      BLAS LIBS :    -lmkl_gf_lp64  -lmkl_sequential -lmkl_core
    LAPACK LIBS :    
       FFT LIBS :    
      MASS LIBS :    

     Parallel version (MPI), running on     2 processors
     R & G space division:  proc/nbgrp/npool/nimage =       2
     Waiting for input...
     Reading input from standard input
     Message from routine read_cards :
     DEPRECATED: no units specified in CELL_PARAMETERS card

     Current dimensions of program PWSCF are:
     Max number of different atomic species (ntypx) = 10
     Max number of k-points (npk) =  40000
     Max angular momentum in pseudopotentials (lmaxx) =  3
               file O.pz-rrkjus.UPF: wavefunction(s)  2S renormalized
               file Fe.pz-nd-rrkjus.UPF: wavefunction(s)  4S renormalized
               file Fe.pz-nd-rrkjus.UPF: wavefunction(s)  4S renormalized

     Subspace diagonalization in iterative solution of the eigenvalue problem:
     a serial algorithm will be used

 
     Parallelization info
     --------------------
     sticks:   dense  smooth     PW     G-vecs:    dense   smooth      PW
     Min         530     269     81                 8627     3055     539
     Max         531     270     82                 8628     3056     542
     Sum        1061     539    163                17255     6111    1081
 
     Generating pointlists ...
     new r_m :   0.2063 (alat units)  1.6892 (a.u.) for type    1
     new r_m :   0.2063 (alat units)  1.6892 (a.u.) for type    2
     new r_m :   0.2063 (alat units)  1.6892 (a.u.) for type    3


     bravais-lattice index     =            0
     lattice parameter (alat)  =       8.1900  a.u.
     unit-cell volume          =     274.6766 (a.u.)^3
     number of atoms/cell      =            4
     number of atomic types    =            3
     number of electrons       =        28.00
     number of Kohn-Sham states=           20
     kinetic-energy cutoff     =      30.0000  Ry
     charge density cutoff     =     240.0000  Ry
     convergence threshold     =      1.0E-06
     mixing beta               =       0.3000
     number of iterations used =            8  plain     mixing
     Exchange-correlation      =  SLA  PZ   NOGX NOGC ( 1  1  0  0 0 0)

     celldm(1)=   8.190000  celldm(2)=   0.000000  celldm(3)=   0.000000
     celldm(4)=   0.000000  celldm(5)=   0.000000  celldm(6)=   0.000000

     crystal axes: (cart. coord. in units of alat)
               a(1) = (   0.500000   0.500000   1.000000 )  
               a(2) = (   0.500000   1.000000   0.500000 )  
               a(3) = (   1.000000   0.500000   0.500000 )  

     reciprocal axes: (cart. coord. in units 2 pi/alat)
               b(1) = ( -0.500000 -0.500000  1.500000 )  
               b(2) = ( -0.500000  1.500000 -0.500000 )  
               b(3) = (  1.500000 -0.500000 -0.500000 )  


     PseudoPot. # 1 for O  read from file:
     /home/nvarini/espresso_hdf5/espresso/pseudo/O.pz-rrkjus.UPF
     MD5 check sum: 24fb942a68ef5d262e498166c462ef4a
     Pseudo is Ultrasoft, Zval =  6.0
     Generated by new atomic code, or converted to UPF format
     Using radial grid of 1269 points,  4 beta functions with: 
                l(1) =   0
                l(2) =   0
                l(3) =   1
                l(4) =   1
     Q(r) pseudized with 0 coefficients 


     PseudoPot. # 2 for Fe read from file:
     /home/nvarini/espresso_hdf5/espresso/pseudo/Fe.pz-nd-rrkjus.UPF
     MD5 check sum: 2e083728ad07023434bc1cc596eb954d
     Pseudo is Ultrasoft + core correction, Zval =  8.0
     Generated by new atomic code, or converted to UPF format
     Using radial grid of  957 points,  6 beta functions with: 
                l(1) =   0
                l(2) =   0
                l(3) =   1
                l(4) =   1
                l(5) =   2
                l(6) =   2
     Q(r) pseudized with 0 coefficients 


     PseudoPot. # 3 for Fe read from file:
     /home/nvarini/espresso_hdf5/espresso/pseudo/Fe.pz-nd-rrkjus.UPF
     MD5 check sum: 2e083728ad07023434bc1cc596eb954d
     Pseudo is Ultrasoft + core correction, Zval =  8.0
     Generated by new atomic code, or converted to UPF format
     Using radial grid of  957 points,  6 beta functions with: 
                l(1) =   0
                l(2) =   0
                l(3) =   1
                l(4) =   1
                l(5) =   2
                l(6) =   2
     Q(r) pseudized with 0 coefficients 


     atomic species   valence    mass     pseudopotential
        O1             6.00     1.00000     O ( 1.00)
        Fe1            8.00     1.00000     Fe( 1.00)
        Fe2            8.00     1.00000     Fe( 1.00)

     Starting magnetic structure 
     atomic species   magnetization
        O1           0.000
        Fe1          0.500
        Fe2         -0.500


     Simplified LDA+U calculation (l_max = 2) with parameters (eV):
     atomic species    L          U    alpha       J0     beta
        Fe1            2     4.3000   0.0000   0.0000   0.0000
        Fe2            2     4.3000   0.0000   0.0000   0.0000



     12 Sym. Ops., with inversion, found



   Cartesian axes

     site n.     atom                  positions (alat units)
         1           O1  tau(   1) = (   0.5000000   0.5000000   0.5000000  )
         2           O1  tau(   2) = (   1.5000000   1.5000000   1.5000000  )
         3           Fe1 tau(   3) = (   0.0000000   0.0000000   0.0000000  )
         4           Fe2 tau(   4) = (   1.0000000   1.0000000   1.0000000  )

     number of k points=     4  gaussian smearing, width (Ry)=  0.0100
                       cart. coord. in units 2pi/alat
        k(    1) = (   0.0000000   0.0000000   0.0000000), wk =   0.1250000
        k(    2) = (  -0.7500000   0.2500000   0.2500000), wk =   0.3750000
        k(    3) = (  -0.5000000  -0.5000000   0.5000000), wk =   0.3750000
        k(    4) = (  -0.2500000  -0.2500000  -0.2500000), wk =   0.1250000

     Dense  grid:    17255 G-vectors     FFT dimensions: (  50,  50,  50)

     Smooth grid:     6111 G-vectors     FFT dimensions: (  36,  36,  36)

     Largest allocated arrays     est. size (Mb)     dimensions
        Kohn-Sham Wavefunctions         0.12 Mb     (     384,   20)
        Atomic Hubbard wavefuncts       0.06 Mb     (     384,   10)
        NL pseudopotentials             0.30 Mb     (     384,   52)
        Each V/rho on FFT grid          1.91 Mb     (   62500,   2)
        Each G-vector array             0.07 Mb     (    8628)
        G-vector shells                 0.00 Mb     (     342)
     Largest temporary arrays     est. size (Mb)     dimensions
        Auxiliary wavefunctions         0.47 Mb     (     384,   80)
        Each subspace H/S matrix        0.10 Mb     (      80,   80)
        Each <psi_i|beta_j> matrix      0.02 Mb     (      52,   20)
        Arrays for rho mixing           7.63 Mb     (   62500,    8)

     Check: negative/imaginary core charge=   -0.000003    0.000000

     Initial potential from superposition of free atoms

     starting charge   27.99905, renormalised to   28.00000
     Number of +U iterations with fixed ns =  0
     Starting occupations:
 --- enter write_ns ---
 LDA+U parameters:
U( 2)     =  4.30000000
alpha( 2) =  0.00000000
U( 3)     =  4.30000000
alpha( 3) =  0.00000000
atom    3   Tr[ns(na)] (up, down, total) =   5.00000  1.00000  6.00000
   spin  1
    eigenvalues: 
  1.000  1.000  1.000  1.000  1.000
    eigenvectors:
  1.000  0.000  0.000  0.000  0.000
  0.000  1.000  0.000  0.000  0.000
  0.000  0.000  1.000  0.000  0.000
  0.000  0.000  0.000  1.000  0.000
  0.000  0.000  0.000  0.000  1.000
    occupations:
  1.000  0.000  0.000  0.000  0.000
  0.000  1.000  0.000  0.000  0.000
  0.000  0.000  1.000  0.000  0.000
  0.000  0.000  0.000  1.000  0.000
  0.000  0.000  0.000  0.000  1.000
   spin  2
    eigenvalues: 
  0.200  0.200  0.200  0.200  0.200
    eigenvectors:
  1.000  0.000  0.000  0.000  0.000
  0.000  1.000  0.000  0.000  0.000
  0.000  0.000  1.000  0.000  0.000
  0.000  0.000  0.000  1.000  0.000
  0.000  0.000  0.000  0.000  1.000
    occupations:
  0.200  0.000  0.000  0.000  0.000
  0.000  0.200  0.000  0.000  0.000
  0.000  0.000  0.200  0.000  0.000
  0.000  0.000  0.000  0.200  0.000
  0.000  0.000  0.000  0.000  0.200
atomic mag. moment =     4.000000
atom    4   Tr[ns(na)] (up, down, total) =   1.00000  5.00000  6.00000
   spin  1
    eigenvalues: 
  0.200  0.200  0.200  0.200  0.200
    eigenvectors:
  1.000  0.000  0.000  0.000  0.000
  0.000  1.000  0.000  0.000  0.000
  0.000  0.000  1.000  0.000  0.000
  0.000  0.000  0.000  1.000  0.000
  0.000  0.000  0.000  0.000  1.000
    occupations:
  0.200  0.000  0.000  0.000  0.000
  0.000  0.200  0.000  0.000  0.000
  0.000  0.000  0.200  0.000  0.000
  0.000  0.000  0.000  0.200  0.000
  0.000  0.000  0.000  0.000  0.200
   spin  2
    eigenvalues: 
  1.000  1.000  1.000  1.000  1.000
    eigenvectors:
  1.000  0.000  0.000  0.000  0.000
  0.000  1.000  0.000  0.000  0.000
  0.000  0.000  1.000  0.000  0.000
  0.000  0.000  0.000  1.000  0.000
  0.000  0.000  0.000  0.000  1.000
    occupations:
  1.000  0.000  0.000  0.000  0.000
  0.000  1.000  0.000  0.000  0.000
  0.000  0.000  1.000  0.000  0.000
  0.000  0.000  0.000  1.000  0.000
  0.000  0.000  0.000  0.000  1.000
atomic mag. moment =    -4.000000
N of occupied +U levels =   12.000000
 --- exit write_ns ---
 Atomic wfc used for LDA+U Projector are NOT orthogonalized
     Starting wfc are   20 randomized atomic wfcs

     total cpu time spent up to now is        1.2 secs

     per-process dynamical memory:    42.3 Mb

     Self-consistent Calculation

     iteration #  1     ecut=    30.00 Ry     beta=0.30
     Davidson diagonalization with overlap
     ethr =  1.00E-02,  avg # of iterations =  2.5
 --- enter write_ns ---
 LDA+U parameters:
U( 2)     =  4.30000000
alpha( 2) =  0.00000000
U( 3)     =  4.30000000
alpha( 3) =  0.00000000
atom    3   Tr[ns(na)] (up, down, total) =   5.00242  1.12054  6.12296
   spin  1
    eigenvalues: 
  0.997  0.997  1.003  1.003  1.003
    eigenvectors:
  0.538  0.107  0.276  0.079  0.000
  0.155  0.082  0.310  0.120  0.333
  0.003  0.234  0.000  0.429  0.333
  0.107  0.538  0.079  0.276  0.000
  0.198  0.039  0.335  0.095  0.333
    occupations:
  0.999  0.001  0.001 -0.000  0.002
  0.001  1.001  0.001  0.002 -0.001
  0.001  0.001  1.001 -0.002 -0.001
 -0.000  0.002 -0.002  0.999 -0.000
  0.002 -0.001 -0.001 -0.000  1.001
   spin  2
    eigenvalues: 
  0.155  0.155  0.257  0.276  0.276
    eigenvectors:
  0.508  0.485  0.000  0.003  0.004
  0.005  0.000  0.333  0.637  0.024
  0.000  0.005  0.333  0.070  0.592
  0.485  0.508  0.000  0.004  0.003
  0.003  0.003  0.333  0.285  0.377
    occupations:
  0.156 -0.004 -0.004 -0.000 -0.009
 -0.004  0.269 -0.006 -0.007  0.006
 -0.004 -0.006  0.269  0.007  0.006
 -0.000 -0.007  0.007  0.156 -0.000
 -0.009  0.006  0.006 -0.000  0.269
atomic mag. moment =     3.881877
atom    4   Tr[ns(na)] (up, down, total) =   1.12134  5.00240  6.12374
   spin  1
    eigenvalues: 
  0.155  0.155  0.257  0.277  0.277
    eigenvectors:
  0.800  0.193  0.000  0.001  0.007
  0.004  0.002  0.333  0.628  0.033
  0.000  0.005  0.333  0.308  0.354
  0.193  0.800  0.000  0.007  0.001
  0.004  0.001  0.333  0.057  0.605
    occupations:
  0.156 -0.004 -0.004 -0.000 -0.009
 -0.004  0.270 -0.006 -0.007  0.006
 -0.004 -0.006  0.270  0.007  0.006
 -0.000 -0.007  0.007  0.156 -0.000
 -0.009  0.006  0.006 -0.000  0.270
   spin  2
    eigenvalues: 
  0.997  0.997  1.003  1.003  1.003
    eigenvectors:
  0.044  0.595  0.246  0.114  0.000
  0.225  0.015  0.346  0.081  0.333
  0.119  0.121  0.002  0.424  0.333
  0.595  0.044  0.114  0.246  0.000
  0.017  0.224  0.291  0.135  0.333
    occupations:
  0.999  0.001  0.001 -0.000  0.002
  0.001  1.001  0.001  0.002 -0.001
  0.001  0.001  1.001 -0.002 -0.001
 -0.000  0.002 -0.002  0.999 -0.000
  0.002 -0.001 -0.001 -0.000  1.001
atomic mag. moment =    -3.881062
N of occupied +U levels =   12.246701
 --- exit write_ns ---
 Modify starting ns matrices according to input values 
 --- enter write_ns ---
 LDA+U parameters:
U( 2)     =  4.30000000
alpha( 2) =  0.00000000
U( 3)     =  4.30000000
alpha( 3) =  0.00000000
atom    3   Tr[ns(na)] (up, down, total) =   5.00242  1.86372  6.86614
   spin  1
    eigenvalues: 
  0.997  0.997  1.003  1.003  1.003
    eigenvectors:
  0.453  0.192  0.296  0.060  0.000
  0.188  0.048  0.283  0.147  0.333
  0.001  0.236  0.004  0.425  0.333
  0.192  0.453  0.060  0.296  0.000
  0.166  0.071  0.358  0.072  0.333
    occupations:
  0.999  0.001  0.001 -0.000  0.002
  0.001  1.001  0.001  0.002 -0.001
  0.001  0.001  1.001 -0.002 -0.001
 -0.000  0.002 -0.002  0.999 -0.000
  0.002 -0.001 -0.001 -0.000  1.001
   spin  2
    eigenvalues: 
  0.155  0.155  0.276  0.276  1.000
    eigenvectors:
  0.447  0.545  0.000  0.008  0.000
  0.005  0.000  0.552  0.109  0.333
  0.000  0.005  0.433  0.229  0.333
  0.545  0.447  0.008  0.000  0.000
  0.002  0.003  0.007  0.654  0.333
    occupations:
  0.156 -0.004 -0.004 -0.000 -0.009
 -0.004  0.517  0.241 -0.007 -0.241
 -0.004  0.241  0.517  0.007 -0.241
 -0.000 -0.007  0.007  0.156 -0.000
 -0.009 -0.241 -0.241 -0.000  0.517
atomic mag. moment =     3.138695
atom    4   Tr[ns(na)] (up, down, total) =   1.86431  5.00240  6.86671
   spin  1
    eigenvalues: 
  0.155  0.155  0.277  0.277  1.000
    eigenvectors:
  0.779  0.213  0.002  0.006  0.000
  0.004  0.001  0.661  0.001  0.333
  0.000  0.005  0.148  0.513  0.333
  0.213  0.779  0.006  0.002  0.000
  0.004  0.001  0.183  0.478  0.333
    occupations:
  0.156 -0.004 -0.004 -0.000 -0.009
 -0.004  0.517  0.241 -0.007 -0.241
 -0.004  0.241  0.517  0.007 -0.241
 -0.000 -0.007  0.007  0.156 -0.000
 -0.009 -0.241 -0.241 -0.000  0.517
   spin  2
    eigenvalues: 
  0.997  0.997  1.003  1.003  1.003
    eigenvectors:
  0.031  0.608  0.262  0.099  0.000
  0.219  0.021  0.330  0.097  0.333
  0.129  0.111  0.000  0.426  0.333
  0.608  0.031  0.099  0.262  0.000
  0.012  0.229  0.309  0.117  0.333
    occupations:
  0.999  0.001  0.001 -0.000  0.002
  0.001  1.001  0.001  0.002 -0.001
  0.001  0.001  1.001 -0.002 -0.001
 -0.000  0.002 -0.002  0.999 -0.000
  0.002 -0.001 -0.001 -0.000  1.001
atomic mag. moment =    -3.138087
N of occupied +U levels =   13.732858
 --- exit write_ns ---

     total cpu time spent up to now is        1.8 secs

     total energy              =    -174.07302140 Ry
     Harris-Foulkes estimate   =    -174.93599285 Ry
     estimated scf accuracy    <       2.39518509 Ry

     total magnetization       =     0.00 Bohr mag/cell
     absolute magnetization    =     8.54 Bohr mag/cell

     iteration #  2     ecut=    30.00 Ry     beta=0.30
     Davidson diagonalization with overlap
     ethr =  8.55E-03,  avg # of iterations =  2.4

     total cpu time spent up to now is        2.3 secs

     total energy              =    -174.49718130 Ry
     Harris-Foulkes estimate   =    -174.52621634 Ry
     estimated scf accuracy    <       0.26939998 Ry

     total magnetization       =    -0.00 Bohr mag/cell
     absolute magnetization    =     7.17 Bohr mag/cell

     iteration #  3     ecut=    30.00 Ry     beta=0.30
     Davidson diagonalization with overlap
     ethr =  9.62E-04,  avg # of iterations =  2.2

     total cpu time spent up to now is        2.8 secs

     total energy              =    -174.52697938 Ry
     Harris-Foulkes estimate   =    -174.51786526 Ry
     estimated scf accuracy    <       0.09641524 Ry

     total magnetization       =    -0.00 Bohr mag/cell
     absolute magnetization    =     7.33 Bohr mag/cell

     iteration #  4     ecut=    30.00 Ry     beta=0.30
     Davidson diagonalization with overlap
     ethr =  3.44E-04,  avg # of iterations =  2.0

     total cpu time spent up to now is        3.3 secs

     total energy              =    -174.53641663 Ry
     Harris-Foulkes estimate   =    -174.53605527 Ry
     estimated scf accuracy    <       0.00282465 Ry

     total magnetization       =     0.00 Bohr mag/cell
     absolute magnetization    =     7.34 Bohr mag/cell

     iteration #  5     ecut=    30.00 Ry     beta=0.30
     Davidson diagonalization with overlap
     ethr =  1.01E-05,  avg # of iterations =  2.8

     total cpu time spent up to now is        3.9 secs

     total energy              =    -174.53717519 Ry
     Harris-Foulkes estimate   =    -174.53703030 Ry
     estimated scf accuracy    <       0.00100226 Ry

     total magnetization       =    -0.00 Bohr mag/cell
     absolute magnetization    =     7.32 Bohr mag/cell

     iteration #  6     ecut=    30.00 Ry     beta=0.30
     Davidson diagonalization with overlap
     ethr =  3.58E-06,  avg # of iterations =  2.0

     total cpu time spent up to now is        4.4 secs

     total energy              =    -174.53735944 Ry
     Harris-Foulkes estimate   =    -174.53736609 Ry
     estimated scf accuracy    <       0.00014040 Ry

     total magnetization       =     0.00 Bohr mag/cell
     absolute magnetization    =     7.31 Bohr mag/cell

     iteration #  7     ecut=    30.00 Ry     beta=0.30
     Davidson diagonalization with overlap
     ethr =  5.01E-07,  avg # of iterations =  3.2

     total cpu time spent up to now is        5.0 secs

     total energy              =    -174.53740577 Ry
     Harris-Foulkes estimate   =    -174.53739578 Ry
     estimated scf accuracy    <       0.00001437 Ry

     total magnetization       =     0.00 Bohr mag/cell
     absolute magnetization    =     7.32 Bohr mag/cell

     iteration #  8     ecut=    30.00 Ry     beta=0.30
     Davidson diagonalization with overlap
     ethr =  5.13E-08,  avg # of iterations =  3.6

     total cpu time spent up to now is        5.6 secs

     total energy              =    -174.53741388 Ry
     Harris-Foulkes estimate   =    -174.53741144 Ry
     estimated scf accuracy    <       0.00000245 Ry

     total magnetization       =     0.00 Bohr mag/cell
     absolute magnetization    =     7.32 Bohr mag/cell

     iteration #  9     ecut=    30.00 Ry     beta=0.30
     Davidson diagonalization with overlap
     ethr =  8.74E-09,  avg # of iterations =  2.9
 
     Magnetic moment per site:
     atom:    1    charge:    5.8528    magn:   -0.0000    constr:    0.0000
     atom:    2    charge:    5.8528    magn:   -0.0000    constr:    0.0000
     atom:    3    charge:    5.6869    magn:    3.3519    constr:    0.0000
     atom:    4    charge:    5.6870    magn:   -3.3519    constr:    0.0000

     total cpu time spent up to now is        6.2 secs

     End of self-consistent calculation
 --- enter write_ns ---
 LDA+U parameters:
U( 2)     =  4.30000000
alpha( 2) =  0.00000000
U( 3)     =  4.30000000
alpha( 3) =  0.00000000
atom    3   Tr[ns(na)] (up, down, total) =   4.99245  1.77354  6.76599
   spin  1
    eigenvalues: 
  0.994  0.994  1.001  1.001  1.002
    eigenvectors:
  0.382  0.528  0.058  0.033  0.000
  0.058  0.002  0.514  0.092  0.333
  0.007  0.054  0.009  0.597  0.333
  0.528  0.382  0.033  0.058  0.000
  0.025  0.035  0.386  0.220  0.333
    occupations:
  0.995  0.001  0.001 -0.000  0.002
  0.001  1.001  0.000  0.001 -0.000
  0.001  0.000  1.001 -0.001 -0.000
 -0.000  0.001 -0.001  0.995 -0.000
  0.002 -0.000 -0.000 -0.000  1.001
   spin  2
    eigenvalues: 
  0.102  0.102  0.293  0.293  0.984
    eigenvectors:
  0.008  0.000  0.673  0.319  0.000
  0.239  0.422  0.005  0.001  0.333
  0.101  0.560  0.000  0.006  0.333
  0.000  0.008  0.319  0.673  0.000
  0.651  0.010  0.004  0.002  0.333
    occupations:
  0.291  0.007  0.007 -0.000  0.014
  0.007  0.397  0.293  0.012 -0.293
  0.007  0.293  0.397 -0.012 -0.293
 -0.000  0.012 -0.012  0.291 -0.000
  0.014 -0.293 -0.293 -0.000  0.397
atomic mag. moment =     3.218914
atom    4   Tr[ns(na)] (up, down, total) =   1.77359  4.99245  6.76604
   spin  1
    eigenvalues: 
  0.102  0.102  0.293  0.293  0.984
    eigenvectors:
  0.004  0.004  0.749  0.242  0.000
  0.607  0.054  0.004  0.001  0.333
  0.035  0.626  0.000  0.006  0.333
  0.004  0.004  0.242  0.749  0.000
  0.350  0.312  0.004  0.001  0.333
    occupations:
  0.291  0.007  0.007 -0.000  0.014
  0.007  0.397  0.293  0.012 -0.293
  0.007  0.293  0.397 -0.012 -0.293
 -0.000  0.012 -0.012  0.291 -0.000
  0.014 -0.293 -0.293 -0.000  0.397
   spin  2
    eigenvalues: 
  0.994  0.994  1.001  1.001  1.002
    eigenvectors:
  0.423  0.487  0.058  0.033  0.000
  0.057  0.003  0.515  0.091  0.333
  0.005  0.055  0.009  0.597  0.333
  0.487  0.423  0.033  0.058  0.000
  0.028  0.032  0.385  0.221  0.333
    occupations:
  0.995  0.001  0.001 -0.000  0.002
  0.001  1.001  0.000  0.001 -0.000
  0.001  0.000  1.001 -0.001 -0.000
 -0.000  0.001 -0.001  0.995 -0.000
  0.002 -0.000 -0.000 -0.000  1.001
atomic mag. moment =    -3.218864
N of occupied +U levels =   13.532029
 --- exit write_ns ---

 ------ SPIN UP ------------


          k = 0.0000 0.0000 0.0000 (   731 PWs)   bands (ev):

    -8.7183  -7.4676   1.4537   3.6650   3.6650   5.4892   5.4892   6.8736
     7.8283   7.8806   7.8806   8.4603   8.4603   9.8920  11.5964  12.5864
    12.5864  13.4553  13.4553  15.5164

          k =-0.7500 0.2500 0.2500 (   764 PWs)   bands (ev):

    -8.0105  -7.3304   2.4600   3.6250   4.1633   4.2256   5.5885   5.6552
     6.2714   6.5399   7.3469   8.7897   9.2132   9.4786  12.5148  12.7499
    13.3332  13.6653  17.3709  17.6644

          k =-0.5000-0.5000 0.5000 (   780 PWs)   bands (ev):

    -7.8303  -7.4832   1.8600   4.1302   4.1642   4.2157   5.6549   5.6830
     6.6624   6.6854   7.2427   8.6736   8.8900   9.7821  12.5726  12.8530
    13.7799  13.8683  15.3276  16.7000

          k =-0.2500-0.2500-0.2500 (   748 PWs)   bands (ev):

    -8.2021  -8.1492   3.4509   3.7655   3.7655   4.2984   5.5350   5.5350
     6.9749   6.9749   7.8694   9.4393   9.4393   9.5136  12.5353  12.5353
    13.1781  13.1781  14.1107  14.3872

 ------ SPIN DOWN ----------


          k = 0.0000 0.0000 0.0000 (   731 PWs)   bands (ev):

    -8.7183  -7.4676   1.4537   3.6646   3.6646   5.4888   5.4888   6.8733
     7.8283   7.8807   7.8807   8.4602   8.4602   9.8923  11.5964  12.5868
    12.5868  13.4557  13.4557  15.5163

          k =-0.7500 0.2500 0.2500 (   764 PWs)   bands (ev):

    -8.0105  -7.3304   2.4598   3.6248   4.1630   4.2256   5.5885   5.6547
     6.2710   6.5400   7.3465   8.7894   9.2130   9.4791  12.5152  12.7503
    13.3336  13.6657  17.3709  17.6645

          k =-0.5000-0.5000 0.5000 (   780 PWs)   bands (ev):

    -7.8303  -7.4832   1.8598   4.1299   4.1639   4.2158   5.6544   5.6827
     6.6624   6.6854   7.2422   8.6736   8.8899   9.7823  12.5729  12.8534
    13.7803  13.8687  15.3276  16.7000

          k =-0.2500-0.2500-0.2500 (   748 PWs)   bands (ev):

    -8.2021  -8.1491   3.4507   3.7651   3.7651   4.2985   5.5345   5.5345
     6.9750   6.9750   7.8691   9.4392   9.4392   9.5140  12.5357  12.5357
    13.1785  13.1785  14.1107  14.3872

     the Fermi energy is    10.7841 ev

!    total energy              =    -174.53741682 Ry
     Harris-Foulkes estimate   =    -174.53741451 Ry
     estimated scf accuracy    <       0.00000023 Ry

     The total energy is the sum of the following terms:

     one-electron contribution =       0.54098897 Ry
     hartree contribution      =      28.09021478 Ry
     xc contribution           =     -65.85549375 Ry
     ewald contribution        =    -137.50929535 Ry
     Hubbard energy            =       0.19616852 Ry
     smearing contrib. (-TS)   =      -0.00000000 Ry

     total magnetization       =     0.00 Bohr mag/cell
     absolute magnetization    =     7.32 Bohr mag/cell

     convergence has been achieved in   9 iterations

     Forces acting on atoms (Ry/au):

     atom    1 type  1   force =     0.00000553    0.00000553    0.00000553
     atom    2 type  1   force =    -0.00000553   -0.00000553   -0.00000553
     atom    3 type  2   force =     0.00000000    0.00000000    0.00000000
     atom    4 type  3   force =     0.00000000    0.00000000    0.00000000

     Total force =     0.000014     Total SCF correction =     0.000198
     SCF correction compared to forces is large: reduce conv_thr to get better values


     entering subroutine stress ...

          total   stress  (Ry/bohr**3)                   (kbar)     P=  -86.05
  -0.00058498  -0.00024547  -0.00024547        -86.05    -36.11    -36.11
  -0.00024547  -0.00058498  -0.00024547        -36.11    -86.05    -36.11
  -0.00024547  -0.00024547  -0.00058498        -36.11    -36.11    -86.05


     Writing output data file feo_af.save
 
     init_run     :      1.08s CPU      1.13s WALL (       1 calls)
     electrons    :      4.90s CPU      4.96s WALL (       1 calls)
     forces       :      0.17s CPU      0.18s WALL (       1 calls)
     stress       :      0.63s CPU      0.63s WALL (       1 calls)

     Called by init_run:
     wfcinit      :      0.12s CPU      0.12s WALL (       1 calls)
     potinit      :      0.04s CPU      0.04s WALL (       1 calls)

     Called by electrons:
     c_bands      :      2.67s CPU      2.70s WALL (       9 calls)
     sum_band     :      1.61s CPU      1.62s WALL (       9 calls)
     v_of_rho     :      0.18s CPU      0.18s WALL (      10 calls)
     newd         :      0.40s CPU      0.43s WALL (      10 calls)
     mix_rho      :      0.05s CPU      0.05s WALL (       9 calls)

     Called by c_bands:
     init_us_2    :      0.08s CPU      0.08s WALL (     256 calls)
     cegterg      :      2.50s CPU      2.54s WALL (      72 calls)

     Called by sum_band:
     sum_band:bec :      0.00s CPU      0.00s WALL (      72 calls)
     addusdens    :      0.99s CPU      0.99s WALL (       9 calls)

     Called by *egterg:
     h_psi        :      2.18s CPU      2.21s WALL (     269 calls)
     s_psi        :      0.07s CPU      0.07s WALL (     357 calls)
     g_psi        :      0.01s CPU      0.01s WALL (     189 calls)
     cdiaghg      :      0.23s CPU      0.23s WALL (     261 calls)

     Called by h_psi:
     add_vuspsi   :      0.05s CPU      0.05s WALL (     269 calls)
     vhpsi        :      0.04s CPU      0.04s WALL (     269 calls)

     General routines
     calbec       :      0.22s CPU      0.21s WALL (    2114 calls)
     fft          :      0.20s CPU      0.21s WALL (     170 calls)
     ffts         :      0.01s CPU      0.01s WALL (      38 calls)
     fftw         :      2.09s CPU      2.05s WALL (    8544 calls)
     interpolate  :      0.05s CPU      0.06s WALL (      38 calls)
     davcio       :      0.00s CPU      0.00s WALL (       8 calls)
 
     Parallel routines
     fft_scatter  :      0.36s CPU      0.43s WALL (    8752 calls)

     Hubbard U routines
     new_ns       :      0.01s CPU      0.01s WALL (       9 calls)
     vhpsi        :      0.04s CPU      0.04s WALL (     269 calls)
     force_hub    :      0.03s CPU      0.04s WALL (       1 calls)
     stres_hub    :      0.27s CPU      0.27s WALL (       1 calls)
 
     PWSCF        :     6.93s CPU         7.07s WALL

 
   This run was terminated on:  17:52:46  29Jun2016            

=------------------------------------------------------------------------------=
   JOB DONE.
=------------------------------------------------------------------------------=
