
     Program PWSCF v.5.4.0 (svn rev. 12590M) starts on 21Jul2016 at 15:36:33 

     This program is part of the open-source Quantum ESPRESSO suite
     for quantum simulation of materials; please cite
         "P. Giannozzi et al., J. Phys.:Condens. Matter 21 395502 (2009);
          URL http://www.quantum-espresso.org", 
     in publications or presentations arising from this work. More details at
     http://www.quantum-espresso.org/quote
 
           HOST :    x86_64-pc-linux-gnu
           ARCH :    x86_64
             CC :    icc
            CPP :    cpp
            F90 :    gfortran
            F77 :    gfortran
         DFLAGS :    -D__GFORTRAN -D__STD_F95 -D__DFTI -D__MPI -D__PARA -D__HDF5
      BLAS LIBS :    -lmkl_gf_lp64  -lmkl_sequential -lmkl_core
    LAPACK LIBS :    
       FFT LIBS :    
      MASS LIBS :    

     Parallel version (MPI), running on     2 processors
     R & G space division:  proc/nbgrp/npool/nimage =       2
     Waiting for input...
     Reading input from standard input
     Message from routine read_cards :
     DEPRECATED: no units specified in CELL_PARAMETERS card

     Current dimensions of program PWSCF are:
     Max number of different atomic species (ntypx) = 10
     Max number of k-points (npk) =  40000
     Max angular momentum in pseudopotentials (lmaxx) =  3
               file O.pz-rrkjus.UPF: wavefunction(s)  2S renormalized
               file Fe.pz-nd-rrkjus.UPF: wavefunction(s)  4S renormalized
               file Fe.pz-nd-rrkjus.UPF: wavefunction(s)  4S renormalized

     Subspace diagonalization in iterative solution of the eigenvalue problem:
     a serial algorithm will be used

 
     Parallelization info
     --------------------
     sticks:   dense  smooth     PW     G-vecs:    dense   smooth      PW
     Min         530     269     81                 8627     3055     539
     Max         531     270     82                 8628     3056     542
     Sum        1061     539    163                17255     6111    1081
 
     Generating pointlists ...
     new r_m :   0.2063 (alat units)  1.6892 (a.u.) for type    1
     new r_m :   0.2063 (alat units)  1.6892 (a.u.) for type    2
     new r_m :   0.2063 (alat units)  1.6892 (a.u.) for type    3


     bravais-lattice index     =            0
     lattice parameter (alat)  =       8.1900  a.u.
     unit-cell volume          =     274.6766 (a.u.)^3
     number of atoms/cell      =            4
     number of atomic types    =            3
     number of electrons       =        28.00
     number of Kohn-Sham states=           20
     kinetic-energy cutoff     =      30.0000  Ry
     charge density cutoff     =     240.0000  Ry
     convergence threshold     =      1.0E-06
     mixing beta               =       0.3000
     number of iterations used =            8  plain     mixing
     Exchange-correlation      =  SLA  PZ   NOGX NOGC ( 1  1  0  0 0 0)

     celldm(1)=   8.190000  celldm(2)=   0.000000  celldm(3)=   0.000000
     celldm(4)=   0.000000  celldm(5)=   0.000000  celldm(6)=   0.000000

     crystal axes: (cart. coord. in units of alat)
               a(1) = (   0.500000   0.500000   1.000000 )  
               a(2) = (   0.500000   1.000000   0.500000 )  
               a(3) = (   1.000000   0.500000   0.500000 )  

     reciprocal axes: (cart. coord. in units 2 pi/alat)
               b(1) = ( -0.500000 -0.500000  1.500000 )  
               b(2) = ( -0.500000  1.500000 -0.500000 )  
               b(3) = (  1.500000 -0.500000 -0.500000 )  


     PseudoPot. # 1 for O  read from file:
     /home/nvarini/espresso_hdf5/espresso/pseudo/O.pz-rrkjus.UPF
     MD5 check sum: 24fb942a68ef5d262e498166c462ef4a
     Pseudo is Ultrasoft, Zval =  6.0
     Generated by new atomic code, or converted to UPF format
     Using radial grid of 1269 points,  4 beta functions with: 
                l(1) =   0
                l(2) =   0
                l(3) =   1
                l(4) =   1
     Q(r) pseudized with 0 coefficients 


     PseudoPot. # 2 for Fe read from file:
     /home/nvarini/espresso_hdf5/espresso/pseudo/Fe.pz-nd-rrkjus.UPF
     MD5 check sum: 2e083728ad07023434bc1cc596eb954d
     Pseudo is Ultrasoft + core correction, Zval =  8.0
     Generated by new atomic code, or converted to UPF format
     Using radial grid of  957 points,  6 beta functions with: 
                l(1) =   0
                l(2) =   0
                l(3) =   1
                l(4) =   1
                l(5) =   2
                l(6) =   2
     Q(r) pseudized with 0 coefficients 


     PseudoPot. # 3 for Fe read from file:
     /home/nvarini/espresso_hdf5/espresso/pseudo/Fe.pz-nd-rrkjus.UPF
     MD5 check sum: 2e083728ad07023434bc1cc596eb954d
     Pseudo is Ultrasoft + core correction, Zval =  8.0
     Generated by new atomic code, or converted to UPF format
     Using radial grid of  957 points,  6 beta functions with: 
                l(1) =   0
                l(2) =   0
                l(3) =   1
                l(4) =   1
                l(5) =   2
                l(6) =   2
     Q(r) pseudized with 0 coefficients 


     atomic species   valence    mass     pseudopotential
        O1             6.00     1.00000     O ( 1.00)
        Fe1            8.00     1.00000     Fe( 1.00)
        Fe2            8.00     1.00000     Fe( 1.00)

     Starting magnetic structure 
     atomic species   magnetization
        O1           0.000
        Fe1          0.500
        Fe2         -0.500


     Simplified LDA+U calculation (l_max = 2) with parameters (eV):
     atomic species    L          U    alpha       J0     beta
        Fe1            2     0.0000   0.0000   0.0000   0.0000
        Fe2            2     0.0000   0.0000   0.0000   0.0000



     12 Sym. Ops., with inversion, found



   Cartesian axes

     site n.     atom                  positions (alat units)
         1           O1  tau(   1) = (   0.5000000   0.5000000   0.5000000  )
         2           O1  tau(   2) = (   1.5000000   1.5000000   1.5000000  )
         3           Fe1 tau(   3) = (   0.0000000   0.0000000   0.0000000  )
         4           Fe2 tau(   4) = (   1.0000000   1.0000000   1.0000000  )

     number of k points=     4  gaussian smearing, width (Ry)=  0.0100
                       cart. coord. in units 2pi/alat
        k(    1) = (   0.0000000   0.0000000   0.0000000), wk =   0.1250000
        k(    2) = (  -0.7500000   0.2500000   0.2500000), wk =   0.3750000
        k(    3) = (  -0.5000000  -0.5000000   0.5000000), wk =   0.3750000
        k(    4) = (  -0.2500000  -0.2500000  -0.2500000), wk =   0.1250000

     Dense  grid:    17255 G-vectors     FFT dimensions: (  50,  50,  50)

     Smooth grid:     6111 G-vectors     FFT dimensions: (  36,  36,  36)

     Largest allocated arrays     est. size (Mb)     dimensions
        Kohn-Sham Wavefunctions         0.12 Mb     (     384,   20)
        Atomic Hubbard wavefuncts       0.06 Mb     (     384,   10)
        NL pseudopotentials             0.30 Mb     (     384,   52)
        Each V/rho on FFT grid          1.91 Mb     (   62500,   2)
        Each G-vector array             0.07 Mb     (    8628)
        G-vector shells                 0.00 Mb     (     342)
     Largest temporary arrays     est. size (Mb)     dimensions
        Auxiliary wavefunctions         0.47 Mb     (     384,   80)
        Each subspace H/S matrix        0.10 Mb     (      80,   80)
        Each <psi_i|beta_j> matrix      0.02 Mb     (      52,   20)
        Arrays for rho mixing           7.63 Mb     (   62500,    8)

     Check: negative/imaginary core charge=   -0.000003    0.000000

     Initial potential from superposition of free atoms

     starting charge   27.99905, renormalised to   28.00000
     Number of +U iterations with fixed ns =  0
     Starting occupations:
 --- enter write_ns ---
 LDA+U parameters:
U( 2)     =  0.00000001
alpha( 2) =  0.00000000
U( 3)     =  0.00000001
alpha( 3) =  0.00000000
atom    3   Tr[ns(na)] (up, down, total) =   5.00000  1.00000  6.00000
   spin  1
    eigenvalues: 
  1.000  1.000  1.000  1.000  1.000
    eigenvectors:
  1.000  0.000  0.000  0.000  0.000
  0.000  1.000  0.000  0.000  0.000
  0.000  0.000  1.000  0.000  0.000
  0.000  0.000  0.000  1.000  0.000
  0.000  0.000  0.000  0.000  1.000
    occupations:
  1.000  0.000  0.000  0.000  0.000
  0.000  1.000  0.000  0.000  0.000
  0.000  0.000  1.000  0.000  0.000
  0.000  0.000  0.000  1.000  0.000
  0.000  0.000  0.000  0.000  1.000
   spin  2
    eigenvalues: 
  0.200  0.200  0.200  0.200  0.200
    eigenvectors:
  1.000  0.000  0.000  0.000  0.000
  0.000  1.000  0.000  0.000  0.000
  0.000  0.000  1.000  0.000  0.000
  0.000  0.000  0.000  1.000  0.000
  0.000  0.000  0.000  0.000  1.000
    occupations:
  0.200  0.000  0.000  0.000  0.000
  0.000  0.200  0.000  0.000  0.000
  0.000  0.000  0.200  0.000  0.000
  0.000  0.000  0.000  0.200  0.000
  0.000  0.000  0.000  0.000  0.200
atomic mag. moment =     4.000000
atom    4   Tr[ns(na)] (up, down, total) =   1.00000  5.00000  6.00000
   spin  1
    eigenvalues: 
  0.200  0.200  0.200  0.200  0.200
    eigenvectors:
  1.000  0.000  0.000  0.000  0.000
  0.000  1.000  0.000  0.000  0.000
  0.000  0.000  1.000  0.000  0.000
  0.000  0.000  0.000  1.000  0.000
  0.000  0.000  0.000  0.000  1.000
    occupations:
  0.200  0.000  0.000  0.000  0.000
  0.000  0.200  0.000  0.000  0.000
  0.000  0.000  0.200  0.000  0.000
  0.000  0.000  0.000  0.200  0.000
  0.000  0.000  0.000  0.000  0.200
   spin  2
    eigenvalues: 
  1.000  1.000  1.000  1.000  1.000
    eigenvectors:
  1.000  0.000  0.000  0.000  0.000
  0.000  1.000  0.000  0.000  0.000
  0.000  0.000  1.000  0.000  0.000
  0.000  0.000  0.000  1.000  0.000
  0.000  0.000  0.000  0.000  1.000
    occupations:
  1.000  0.000  0.000  0.000  0.000
  0.000  1.000  0.000  0.000  0.000
  0.000  0.000  1.000  0.000  0.000
  0.000  0.000  0.000  1.000  0.000
  0.000  0.000  0.000  0.000  1.000
atomic mag. moment =    -4.000000
N of occupied +U levels =   12.000000
 --- exit write_ns ---
 Atomic wfc used for LDA+U Projector are NOT orthogonalized
     Starting wfc are   20 randomized atomic wfcs

     total cpu time spent up to now is        1.2 secs

     per-process dynamical memory:    42.3 Mb

     Self-consistent Calculation

     iteration #  1     ecut=    30.00 Ry     beta=0.30
     Davidson diagonalization with overlap
     ethr =  1.00E-02,  avg # of iterations =  2.6
 --- enter write_ns ---
 LDA+U parameters:
U( 2)     =  0.00000001
alpha( 2) =  0.00000000
U( 3)     =  0.00000001
alpha( 3) =  0.00000000
atom    3   Tr[ns(na)] (up, down, total) =   4.96644  1.45751  6.42395
   spin  1
    eigenvalues: 
  0.987  0.987  0.997  0.997  0.998
    eigenvectors:
  0.616  0.303  0.051  0.030  0.000
  0.044  0.010  0.522  0.091  0.333
  0.000  0.053  0.010  0.603  0.333
  0.303  0.616  0.030  0.051  0.000
  0.036  0.018  0.387  0.226  0.333
    occupations:
  0.988  0.001  0.001 -0.000  0.002
  0.001  0.997  0.001  0.002 -0.001
  0.001  0.001  0.997 -0.002 -0.001
 -0.000  0.002 -0.002  0.988 -0.000
  0.002 -0.001 -0.001 -0.000  0.997
   spin  2
    eigenvalues: 
  0.200  0.200  0.335  0.335  0.387
    eigenvectors:
  0.626  0.369  0.000  0.005  0.000
  0.003  0.001  0.625  0.038  0.333
  0.000  0.003  0.319  0.344  0.333
  0.369  0.626  0.005  0.000  0.000
  0.002  0.001  0.051  0.612  0.333
    occupations:
  0.201 -0.004 -0.004 -0.000 -0.008
 -0.004  0.352  0.018 -0.007 -0.018
 -0.004  0.018  0.352  0.007 -0.018
 -0.000 -0.007  0.007  0.201 -0.000
 -0.008 -0.018 -0.018 -0.000  0.352
atomic mag. moment =     3.508934
atom    4   Tr[ns(na)] (up, down, total) =   1.45611  4.96674  6.42285
   spin  1
    eigenvalues: 
  0.200  0.200  0.335  0.335  0.386
    eigenvectors:
  0.809  0.186  0.002  0.003  0.000
  0.002  0.001  0.650  0.013  0.333
  0.000  0.003  0.092  0.572  0.333
  0.186  0.809  0.003  0.002  0.000
  0.003  0.001  0.254  0.410  0.333
    occupations:
  0.201 -0.004 -0.004 -0.000 -0.008
 -0.004  0.352  0.017 -0.007 -0.017
 -0.004  0.017  0.352  0.007 -0.017
 -0.000 -0.007  0.007  0.201 -0.000
 -0.008 -0.017 -0.017 -0.000  0.352
   spin  2
    eigenvalues: 
  0.987  0.987  0.997  0.997  0.998
    eigenvectors:
  0.544  0.373  0.059  0.024  0.000
  0.048  0.007  0.480  0.132  0.333
  0.002  0.054  0.001  0.611  0.333
  0.373  0.544  0.024  0.059  0.000
  0.033  0.022  0.437  0.175  0.333
    occupations:
  0.988  0.001  0.001 -0.000  0.002
  0.001  0.997  0.001  0.002 -0.001
  0.001  0.001  0.997 -0.002 -0.001
 -0.000  0.002 -0.002  0.988 -0.000
  0.002 -0.001 -0.001 -0.000  0.997
atomic mag. moment =    -3.510628
N of occupied +U levels =   12.846803
 --- exit write_ns ---

     total cpu time spent up to now is        1.8 secs

     total energy              =    -174.40752572 Ry
     Harris-Foulkes estimate   =    -175.24258567 Ry
     estimated scf accuracy    <       1.85351308 Ry

     total magnetization       =    -0.00 Bohr mag/cell
     absolute magnetization    =     7.81 Bohr mag/cell

     iteration #  2     ecut=    30.00 Ry     beta=0.30
     Davidson diagonalization with overlap
     ethr =  6.62E-03,  avg # of iterations =  2.1

     total cpu time spent up to now is        2.3 secs

     total energy              =    -174.80016182 Ry
     Harris-Foulkes estimate   =    -174.83041988 Ry
     estimated scf accuracy    <       0.11347877 Ry

     total magnetization       =     0.02 Bohr mag/cell
     absolute magnetization    =     6.81 Bohr mag/cell

     iteration #  3     ecut=    30.00 Ry     beta=0.30
     Davidson diagonalization with overlap
     ethr =  4.05E-04,  avg # of iterations =  3.0

     total cpu time spent up to now is        2.8 secs

     total energy              =    -174.81829635 Ry
     Harris-Foulkes estimate   =    -174.81959357 Ry
     estimated scf accuracy    <       0.02508153 Ry

     total magnetization       =    -0.13 Bohr mag/cell
     absolute magnetization    =     7.04 Bohr mag/cell

     iteration #  4     ecut=    30.00 Ry     beta=0.30
     Davidson diagonalization with overlap
     ethr =  8.96E-05,  avg # of iterations =  2.0

     total cpu time spent up to now is        3.4 secs

     total energy              =    -174.81806660 Ry
     Harris-Foulkes estimate   =    -174.83118759 Ry
     estimated scf accuracy    <       0.22639856 Ry

     total magnetization       =     0.74 Bohr mag/cell
     absolute magnetization    =     7.01 Bohr mag/cell

     iteration #  5     ecut=    30.00 Ry     beta=0.30
     Davidson diagonalization with overlap
     ethr =  8.96E-05,  avg # of iterations =  1.5

     total cpu time spent up to now is        3.8 secs

     total energy              =    -174.82391470 Ry
     Harris-Foulkes estimate   =    -174.82446216 Ry
     estimated scf accuracy    <       0.00519225 Ry

     total magnetization       =     0.10 Bohr mag/cell
     absolute magnetization    =     7.04 Bohr mag/cell

     iteration #  6     ecut=    30.00 Ry     beta=0.30
     Davidson diagonalization with overlap
     ethr =  1.85E-05,  avg # of iterations =  2.0

     total cpu time spent up to now is        4.4 secs

     total energy              =    -174.82444963 Ry
     Harris-Foulkes estimate   =    -174.82442547 Ry
     estimated scf accuracy    <       0.00122360 Ry

     total magnetization       =    -0.06 Bohr mag/cell
     absolute magnetization    =     7.07 Bohr mag/cell

     iteration #  7     ecut=    30.00 Ry     beta=0.30
     Davidson diagonalization with overlap
     ethr =  4.37E-06,  avg # of iterations =  2.5

     total cpu time spent up to now is        4.9 secs

     total energy              =    -174.82458887 Ry
     Harris-Foulkes estimate   =    -174.82465118 Ry
     estimated scf accuracy    <       0.00155992 Ry

     total magnetization       =     0.06 Bohr mag/cell
     absolute magnetization    =     7.08 Bohr mag/cell

     iteration #  8     ecut=    30.00 Ry     beta=0.30
     Davidson diagonalization with overlap
     ethr =  4.37E-06,  avg # of iterations =  1.0

     total cpu time spent up to now is        5.4 secs

     total energy              =    -174.82464063 Ry
     Harris-Foulkes estimate   =    -174.82463178 Ry
     estimated scf accuracy    <       0.00004548 Ry

     total magnetization       =     0.01 Bohr mag/cell
     absolute magnetization    =     7.08 Bohr mag/cell

     iteration #  9     ecut=    30.00 Ry     beta=0.30
     Davidson diagonalization with overlap
     ethr =  1.62E-07,  avg # of iterations =  3.6

     total cpu time spent up to now is        6.0 secs

     total energy              =    -174.82465496 Ry
     Harris-Foulkes estimate   =    -174.82465872 Ry
     estimated scf accuracy    <       0.00008984 Ry

     total magnetization       =     0.02 Bohr mag/cell
     absolute magnetization    =     7.08 Bohr mag/cell

     iteration # 10     ecut=    30.00 Ry     beta=0.30
     Davidson diagonalization with overlap
     ethr =  1.62E-07,  avg # of iterations =  1.0
 
     Magnetic moment per site:
     atom:    1    charge:    5.8162    magn:    0.0000    constr:    0.0000
     atom:    2    charge:    5.8162    magn:    0.0000    constr:    0.0000
     atom:    3    charge:    5.7013    magn:    3.2797    constr:    0.0000
     atom:    4    charge:    5.7025    magn:   -3.2789    constr:    0.0000

     total cpu time spent up to now is        6.5 secs

     End of self-consistent calculation
 --- enter write_ns ---
 LDA+U parameters:
U( 2)     =  0.00000001
alpha( 2) =  0.00000000
U( 3)     =  0.00000001
alpha( 3) =  0.00000000
atom    3   Tr[ns(na)] (up, down, total) =   4.97024  1.96814  6.93837
   spin  1
    eigenvalues: 
  0.986  0.986  1.000  1.000  1.000
    eigenvectors:
  0.476  0.504  0.011  0.009  0.000
  0.013  0.001  0.597  0.056  0.333
  0.001  0.013  0.033  0.620  0.333
  0.504  0.476  0.009  0.011  0.000
  0.007  0.007  0.350  0.304  0.333
    occupations:
  0.986  0.001  0.001 -0.000  0.002
  0.001  0.999  0.000  0.001 -0.000
  0.001  0.000  0.999 -0.001 -0.000
 -0.000  0.001 -0.001  0.986 -0.000
  0.002 -0.000 -0.000 -0.000  0.999
   spin  2
    eigenvalues: 
  0.330  0.330  0.430  0.439  0.439
    eigenvectors:
  0.740  0.126  0.000  0.015  0.119
  0.056  0.033  0.333  0.559  0.018
  0.002  0.088  0.333  0.241  0.336
  0.126  0.740  0.000  0.119  0.015
  0.076  0.013  0.333  0.066  0.511
    occupations:
  0.345 -0.015 -0.015 -0.000 -0.030
 -0.015  0.426  0.002 -0.026 -0.002
 -0.015  0.002  0.426  0.026 -0.002
 -0.000 -0.026  0.026  0.345 -0.000
 -0.030 -0.002 -0.002 -0.000  0.426
atomic mag. moment =     3.002099
atom    4   Tr[ns(na)] (up, down, total) =   1.96919  4.97025  6.93944
   spin  1
    eigenvalues: 
  0.330  0.330  0.431  0.439  0.439
    eigenvectors:
  0.648  0.218  0.000  0.011  0.123
  0.067  0.022  0.333  0.547  0.031
  0.000  0.089  0.333  0.273  0.305
  0.218  0.648  0.000  0.123  0.011
  0.067  0.022  0.333  0.047  0.530
    occupations:
  0.345 -0.015 -0.015 -0.000 -0.030
 -0.015  0.427  0.002 -0.026 -0.002
 -0.015  0.002  0.427  0.026 -0.002
 -0.000 -0.026  0.026  0.345 -0.000
 -0.030 -0.002 -0.002 -0.000  0.427
   spin  2
    eigenvalues: 
  0.986  0.986  0.999  0.999  1.000
    eigenvectors:
  0.830  0.149  0.015  0.005  0.000
  0.009  0.005  0.492  0.161  0.333
  0.000  0.013  0.000  0.653  0.333
  0.149  0.830  0.005  0.015  0.000
  0.011  0.002  0.488  0.165  0.333
    occupations:
  0.986  0.001  0.001 -0.000  0.002
  0.001  0.999  0.000  0.001 -0.000
  0.001  0.000  0.999 -0.001 -0.000
 -0.000  0.001 -0.001  0.986 -0.000
  0.002 -0.000 -0.000 -0.000  0.999
atomic mag. moment =    -3.001056
N of occupied +U levels =   13.877810
 --- exit write_ns ---

 ------ SPIN UP ------------


          k = 0.0000 0.0000 0.0000 (   731 PWs)   bands (ev):

    -8.9539  -7.7477   2.7536   5.1276   5.1276   7.5754   7.5988   7.5988
     7.7789   7.7789   8.0648   8.9387   8.9387  11.0561  11.0561  11.2570
    11.5022  12.8924  12.8925  15.3689

          k =-0.7500 0.2500 0.2500 (   764 PWs)   bands (ev):

    -7.7717  -7.7523   3.6504   3.9124   4.7743   5.3276   5.3833   6.0696
     7.7224   8.2483   8.6481   9.6398   9.8408  10.4285  11.6995  11.8239
    12.6005  12.6273  17.2951  17.6035

          k =-0.5000-0.5000 0.5000 (   780 PWs)   bands (ev):

    -7.7629  -7.7513   2.7893   4.0516   5.1679   5.1903   6.4313   6.4439
     7.1587   8.2367   8.5576   9.3832   9.6068  10.7258  11.7098  11.8176
    13.0233  13.0935  15.3293  16.7014

          k =-0.2500-0.2500-0.2500 (   748 PWs)   bands (ev):

    -8.4154  -8.3815   4.4373   4.8293   5.5353   5.5353   6.5035   6.5035
     7.8495   7.8495   8.2983   9.9325   9.9325  10.9593  10.9717  10.9717
    12.4951  12.4951  13.9938  14.2627

 ------ SPIN DOWN ----------


          k = 0.0000 0.0000 0.0000 (   731 PWs)   bands (ev):

    -8.9538  -7.7475   2.7536   5.1274   5.1274   7.5756   7.5990   7.5990
     7.7777   7.7777   8.0642   8.9383   8.9383  11.0565  11.0565  11.2575
    11.5023  12.8929  12.8929  15.3689

          k =-0.7500 0.2500 0.2500 (   764 PWs)   bands (ev):

    -7.7715  -7.7521   3.6504   3.9125   4.7741   5.3277   5.3830   6.0698
     7.7216   8.2471   8.6472   9.6391   9.8401  10.4289  11.7001  11.8245
    12.6012  12.6279  17.2951  17.6036

          k =-0.5000-0.5000 0.5000 (   780 PWs)   bands (ev):

    -7.7627  -7.7511   2.7893   4.0517   5.1677   5.1901   6.4314   6.4441
     7.1579   8.2354   8.5567   9.3826   9.6063  10.7260  11.7103  11.8182
    13.0239  13.0941  15.3293  16.7013

          k =-0.2500-0.2500-0.2500 (   748 PWs)   bands (ev):

    -8.4152  -8.3813   4.4372   4.8294   5.5349   5.5349   6.5038   6.5038
     7.8483   7.8483   8.2978   9.9320   9.9320  10.9599  10.9721  10.9721
    12.4957  12.4957  13.9938  14.2628

     the Fermi energy is    10.9764 ev

!    total energy              =    -174.82465729 Ry
     Harris-Foulkes estimate   =    -174.82465754 Ry
     estimated scf accuracy    <       0.00000075 Ry

     The total energy is the sum of the following terms:

     one-electron contribution =       0.56090174 Ry
     hartree contribution      =      27.86243372 Ry
     xc contribution           =     -65.73551354 Ry
     ewald contribution        =    -137.50929535 Ry
     Hubbard energy            =       0.00000000 Ry
     smearing contrib. (-TS)   =      -0.00318387 Ry

     total magnetization       =     0.00 Bohr mag/cell
     absolute magnetization    =     7.09 Bohr mag/cell

     convergence has been achieved in  10 iterations

     Forces acting on atoms (Ry/au):

     atom    1 type  1   force =     0.00003478    0.00003478    0.00003478
     atom    2 type  1   force =    -0.00003478   -0.00003478   -0.00003478
     atom    3 type  2   force =     0.00000000   -0.00000000    0.00000000
     atom    4 type  3   force =     0.00000000    0.00000000   -0.00000000

     Total force =     0.000085     Total SCF correction =     0.001618
     SCF correction compared to forces is large: reduce conv_thr to get better values


     entering subroutine stress ...

          total   stress  (Ry/bohr**3)                   (kbar)     P= -235.44
  -0.00160049   0.00014921   0.00014921       -235.44     21.95     21.95
   0.00014921  -0.00160049   0.00014921         21.95   -235.44     21.95
   0.00014921   0.00014921  -0.00160049         21.95     21.95   -235.44


     Writing output data file feo_af.save
 
     init_run     :      1.08s CPU      1.12s WALL (       1 calls)
     electrons    :      5.24s CPU      5.27s WALL (       1 calls)
     forces       :      0.17s CPU      0.17s WALL (       1 calls)
     stress       :      0.63s CPU      0.63s WALL (       1 calls)

     Called by init_run:
     wfcinit      :      0.12s CPU      0.12s WALL (       1 calls)
     potinit      :      0.04s CPU      0.04s WALL (       1 calls)

     Called by electrons:
     c_bands      :      2.77s CPU      2.79s WALL (      10 calls)
     sum_band     :      1.77s CPU      1.78s WALL (      10 calls)
     v_of_rho     :      0.19s CPU      0.20s WALL (      11 calls)
     newd         :      0.43s CPU      0.46s WALL (      11 calls)
     mix_rho      :      0.06s CPU      0.06s WALL (      10 calls)

     Called by c_bands:
     init_us_2    :      0.09s CPU      0.08s WALL (     272 calls)
     cegterg      :      2.59s CPU      2.61s WALL (      80 calls)

     Called by sum_band:
     sum_band:bec :      0.00s CPU      0.00s WALL (      80 calls)
     addusdens    :      1.07s CPU      1.07s WALL (      10 calls)

     Called by *egterg:
     h_psi        :      2.29s CPU      2.30s WALL (     259 calls)
     s_psi        :      0.08s CPU      0.07s WALL (     347 calls)
     g_psi        :      0.01s CPU      0.01s WALL (     171 calls)
     cdiaghg      :      0.21s CPU      0.20s WALL (     251 calls)

     Called by h_psi:
     add_vuspsi   :      0.05s CPU      0.05s WALL (     259 calls)
     vhpsi        :      0.04s CPU      0.04s WALL (     259 calls)

     General routines
     calbec       :      0.24s CPU      0.22s WALL (    2110 calls)
     fft          :      0.23s CPU      0.24s WALL (     187 calls)
     ffts         :      0.02s CPU      0.02s WALL (      42 calls)
     fftw         :      2.17s CPU      2.16s WALL (    8978 calls)
     interpolate  :      0.07s CPU      0.07s WALL (      42 calls)
     davcio       :      0.00s CPU      0.00s WALL (       8 calls)
 
     Parallel routines
     fft_scatter  :      0.42s CPU      0.47s WALL (    9207 calls)

     Hubbard U routines
     new_ns       :      0.01s CPU      0.01s WALL (      10 calls)
     vhpsi        :      0.04s CPU      0.04s WALL (     259 calls)
     force_hub    :      0.04s CPU      0.04s WALL (       1 calls)
     stres_hub    :      0.27s CPU      0.27s WALL (       1 calls)
 
     PWSCF        :     7.27s CPU         7.36s WALL

 
   This run was terminated on:  15:36:40  21Jul2016            

=------------------------------------------------------------------------------=
   JOB DONE.
=------------------------------------------------------------------------------=
