
     Program PWSCF v.5.4.0 (svn rev. 12590M) starts on 21Jul2016 at 15:36:40 

     This program is part of the open-source Quantum ESPRESSO suite
     for quantum simulation of materials; please cite
         "P. Giannozzi et al., J. Phys.:Condens. Matter 21 395502 (2009);
          URL http://www.quantum-espresso.org", 
     in publications or presentations arising from this work. More details at
     http://www.quantum-espresso.org/quote
 
           HOST :    x86_64-pc-linux-gnu
           ARCH :    x86_64
             CC :    icc
            CPP :    cpp
            F90 :    gfortran
            F77 :    gfortran
         DFLAGS :    -D__GFORTRAN -D__STD_F95 -D__DFTI -D__MPI -D__PARA -D__HDF5
      BLAS LIBS :    -lmkl_gf_lp64  -lmkl_sequential -lmkl_core
    LAPACK LIBS :    
       FFT LIBS :    
      MASS LIBS :    

     Parallel version (MPI), running on     2 processors
     R & G space division:  proc/nbgrp/npool/nimage =       2
     Waiting for input...
     Reading input from standard input
     Message from routine read_cards :
     DEPRECATED: no units specified in CELL_PARAMETERS card

     Current dimensions of program PWSCF are:
     Max number of different atomic species (ntypx) = 10
     Max number of k-points (npk) =  40000
     Max angular momentum in pseudopotentials (lmaxx) =  3
               file O.pz-rrkjus.UPF: wavefunction(s)  2S renormalized
               file Fe.pz-nd-rrkjus.UPF: wavefunction(s)  4S renormalized
               file Fe.pz-nd-rrkjus.UPF: wavefunction(s)  4S renormalized

     Subspace diagonalization in iterative solution of the eigenvalue problem:
     a serial algorithm will be used

 
     Parallelization info
     --------------------
     sticks:   dense  smooth     PW     G-vecs:    dense   smooth      PW
     Min         530     269     81                 8627     3055     539
     Max         531     270     82                 8628     3056     542
     Sum        1061     539    163                17255     6111    1081
 
     Generating pointlists ...
     new r_m :   0.2063 (alat units)  1.6892 (a.u.) for type    1
     new r_m :   0.2063 (alat units)  1.6892 (a.u.) for type    2
     new r_m :   0.2063 (alat units)  1.6892 (a.u.) for type    3


     bravais-lattice index     =            0
     lattice parameter (alat)  =       8.1900  a.u.
     unit-cell volume          =     274.6766 (a.u.)^3
     number of atoms/cell      =            4
     number of atomic types    =            3
     number of electrons       =        28.00
     number of Kohn-Sham states=           20
     kinetic-energy cutoff     =      30.0000  Ry
     charge density cutoff     =     240.0000  Ry
     convergence threshold     =      1.0E-06
     mixing beta               =       0.3000
     number of iterations used =            8  plain     mixing
     Exchange-correlation      =  SLA  PZ   NOGX NOGC ( 1  1  0  0 0 0)

     celldm(1)=   8.190000  celldm(2)=   0.000000  celldm(3)=   0.000000
     celldm(4)=   0.000000  celldm(5)=   0.000000  celldm(6)=   0.000000

     crystal axes: (cart. coord. in units of alat)
               a(1) = (   0.500000   0.500000   1.000000 )  
               a(2) = (   0.500000   1.000000   0.500000 )  
               a(3) = (   1.000000   0.500000   0.500000 )  

     reciprocal axes: (cart. coord. in units 2 pi/alat)
               b(1) = ( -0.500000 -0.500000  1.500000 )  
               b(2) = ( -0.500000  1.500000 -0.500000 )  
               b(3) = (  1.500000 -0.500000 -0.500000 )  


     PseudoPot. # 1 for O  read from file:
     /home/nvarini/espresso_hdf5/espresso/pseudo/O.pz-rrkjus.UPF
     MD5 check sum: 24fb942a68ef5d262e498166c462ef4a
     Pseudo is Ultrasoft, Zval =  6.0
     Generated by new atomic code, or converted to UPF format
     Using radial grid of 1269 points,  4 beta functions with: 
                l(1) =   0
                l(2) =   0
                l(3) =   1
                l(4) =   1
     Q(r) pseudized with 0 coefficients 


     PseudoPot. # 2 for Fe read from file:
     /home/nvarini/espresso_hdf5/espresso/pseudo/Fe.pz-nd-rrkjus.UPF
     MD5 check sum: 2e083728ad07023434bc1cc596eb954d
     Pseudo is Ultrasoft + core correction, Zval =  8.0
     Generated by new atomic code, or converted to UPF format
     Using radial grid of  957 points,  6 beta functions with: 
                l(1) =   0
                l(2) =   0
                l(3) =   1
                l(4) =   1
                l(5) =   2
                l(6) =   2
     Q(r) pseudized with 0 coefficients 


     PseudoPot. # 3 for Fe read from file:
     /home/nvarini/espresso_hdf5/espresso/pseudo/Fe.pz-nd-rrkjus.UPF
     MD5 check sum: 2e083728ad07023434bc1cc596eb954d
     Pseudo is Ultrasoft + core correction, Zval =  8.0
     Generated by new atomic code, or converted to UPF format
     Using radial grid of  957 points,  6 beta functions with: 
                l(1) =   0
                l(2) =   0
                l(3) =   1
                l(4) =   1
                l(5) =   2
                l(6) =   2
     Q(r) pseudized with 0 coefficients 


     atomic species   valence    mass     pseudopotential
        O1             6.00     1.00000     O ( 1.00)
        Fe1            8.00     1.00000     Fe( 1.00)
        Fe2            8.00     1.00000     Fe( 1.00)

     Starting magnetic structure 
     atomic species   magnetization
        O1           0.000
        Fe1          0.500
        Fe2         -0.500


     Simplified LDA+U calculation (l_max = 2) with parameters (eV):
     atomic species    L          U    alpha       J0     beta
        Fe1            2     4.3000   0.0000   0.0000   0.0000
        Fe2            2     4.3000   0.0000   0.0000   0.0000



     12 Sym. Ops., with inversion, found



   Cartesian axes

     site n.     atom                  positions (alat units)
         1           O1  tau(   1) = (   0.5000000   0.5000000   0.5000000  )
         2           O1  tau(   2) = (   1.5000000   1.5000000   1.5000000  )
         3           Fe1 tau(   3) = (   0.0000000   0.0000000   0.0000000  )
         4           Fe2 tau(   4) = (   1.0000000   1.0000000   1.0000000  )

     number of k points=     4  gaussian smearing, width (Ry)=  0.0100
                       cart. coord. in units 2pi/alat
        k(    1) = (   0.0000000   0.0000000   0.0000000), wk =   0.1250000
        k(    2) = (  -0.7500000   0.2500000   0.2500000), wk =   0.3750000
        k(    3) = (  -0.5000000  -0.5000000   0.5000000), wk =   0.3750000
        k(    4) = (  -0.2500000  -0.2500000  -0.2500000), wk =   0.1250000

     Dense  grid:    17255 G-vectors     FFT dimensions: (  50,  50,  50)

     Smooth grid:     6111 G-vectors     FFT dimensions: (  36,  36,  36)

     Largest allocated arrays     est. size (Mb)     dimensions
        Kohn-Sham Wavefunctions         0.12 Mb     (     384,   20)
        Atomic Hubbard wavefuncts       0.06 Mb     (     384,   10)
        NL pseudopotentials             0.30 Mb     (     384,   52)
        Each V/rho on FFT grid          1.91 Mb     (   62500,   2)
        Each G-vector array             0.07 Mb     (    8628)
        G-vector shells                 0.00 Mb     (     342)
     Largest temporary arrays     est. size (Mb)     dimensions
        Auxiliary wavefunctions         0.47 Mb     (     384,   80)
        Each subspace H/S matrix        0.10 Mb     (      80,   80)
        Each <psi_i|beta_j> matrix      0.02 Mb     (      52,   20)
        Arrays for rho mixing           7.63 Mb     (   62500,    8)

     Check: negative/imaginary core charge=   -0.000003    0.000000

     Initial potential from superposition of free atoms

     starting charge   27.99905, renormalised to   28.00000
     Number of +U iterations with fixed ns =  0
     Starting occupations:
 --- enter write_ns ---
 LDA+U parameters:
U( 2)     =  4.30000000
alpha( 2) =  0.00000000
U( 3)     =  4.30000000
alpha( 3) =  0.00000000
atom    3   Tr[ns(na)] (up, down, total) =   5.00000  1.00000  6.00000
   spin  1
    eigenvalues: 
  1.000  1.000  1.000  1.000  1.000
    eigenvectors:
  1.000  0.000  0.000  0.000  0.000
  0.000  1.000  0.000  0.000  0.000
  0.000  0.000  1.000  0.000  0.000
  0.000  0.000  0.000  1.000  0.000
  0.000  0.000  0.000  0.000  1.000
    occupations:
  1.000  0.000  0.000  0.000  0.000
  0.000  1.000  0.000  0.000  0.000
  0.000  0.000  1.000  0.000  0.000
  0.000  0.000  0.000  1.000  0.000
  0.000  0.000  0.000  0.000  1.000
   spin  2
    eigenvalues: 
  0.200  0.200  0.200  0.200  0.200
    eigenvectors:
  1.000  0.000  0.000  0.000  0.000
  0.000  1.000  0.000  0.000  0.000
  0.000  0.000  1.000  0.000  0.000
  0.000  0.000  0.000  1.000  0.000
  0.000  0.000  0.000  0.000  1.000
    occupations:
  0.200  0.000  0.000  0.000  0.000
  0.000  0.200  0.000  0.000  0.000
  0.000  0.000  0.200  0.000  0.000
  0.000  0.000  0.000  0.200  0.000
  0.000  0.000  0.000  0.000  0.200
atomic mag. moment =     4.000000
atom    4   Tr[ns(na)] (up, down, total) =   1.00000  5.00000  6.00000
   spin  1
    eigenvalues: 
  0.200  0.200  0.200  0.200  0.200
    eigenvectors:
  1.000  0.000  0.000  0.000  0.000
  0.000  1.000  0.000  0.000  0.000
  0.000  0.000  1.000  0.000  0.000
  0.000  0.000  0.000  1.000  0.000
  0.000  0.000  0.000  0.000  1.000
    occupations:
  0.200  0.000  0.000  0.000  0.000
  0.000  0.200  0.000  0.000  0.000
  0.000  0.000  0.200  0.000  0.000
  0.000  0.000  0.000  0.200  0.000
  0.000  0.000  0.000  0.000  0.200
   spin  2
    eigenvalues: 
  1.000  1.000  1.000  1.000  1.000
    eigenvectors:
  1.000  0.000  0.000  0.000  0.000
  0.000  1.000  0.000  0.000  0.000
  0.000  0.000  1.000  0.000  0.000
  0.000  0.000  0.000  1.000  0.000
  0.000  0.000  0.000  0.000  1.000
    occupations:
  1.000  0.000  0.000  0.000  0.000
  0.000  1.000  0.000  0.000  0.000
  0.000  0.000  1.000  0.000  0.000
  0.000  0.000  0.000  1.000  0.000
  0.000  0.000  0.000  0.000  1.000
atomic mag. moment =    -4.000000
N of occupied +U levels =   12.000000
 --- exit write_ns ---
 Atomic wfc used for LDA+U Projector are NOT orthogonalized
     Starting wfc are   20 randomized atomic wfcs

     total cpu time spent up to now is        1.2 secs

     per-process dynamical memory:    42.3 Mb

     Self-consistent Calculation

     iteration #  1     ecut=    30.00 Ry     beta=0.30
     Davidson diagonalization with overlap
     ethr =  1.00E-02,  avg # of iterations =  2.5
 --- enter write_ns ---
 LDA+U parameters:
U( 2)     =  4.30000000
alpha( 2) =  0.00000000
U( 3)     =  4.30000000
alpha( 3) =  0.00000000
atom    3   Tr[ns(na)] (up, down, total) =   5.00242  1.12054  6.12296
   spin  1
    eigenvalues: 
  0.997  0.997  1.003  1.003  1.003
    eigenvectors:
  0.538  0.107  0.276  0.079  0.000
  0.155  0.082  0.310  0.120  0.333
  0.003  0.234  0.000  0.429  0.333
  0.107  0.538  0.079  0.276  0.000
  0.198  0.039  0.335  0.095  0.333
    occupations:
  0.999  0.001  0.001 -0.000  0.002
  0.001  1.001  0.001  0.002 -0.001
  0.001  0.001  1.001 -0.002 -0.001
 -0.000  0.002 -0.002  0.999 -0.000
  0.002 -0.001 -0.001 -0.000  1.001
   spin  2
    eigenvalues: 
  0.155  0.155  0.257  0.276  0.276
    eigenvectors:
  0.508  0.485  0.000  0.003  0.004
  0.005  0.000  0.333  0.637  0.024
  0.000  0.005  0.333  0.070  0.592
  0.485  0.508  0.000  0.004  0.003
  0.003  0.003  0.333  0.285  0.377
    occupations:
  0.156 -0.004 -0.004 -0.000 -0.009
 -0.004  0.269 -0.006 -0.007  0.006
 -0.004 -0.006  0.269  0.007  0.006
 -0.000 -0.007  0.007  0.156 -0.000
 -0.009  0.006  0.006 -0.000  0.269
atomic mag. moment =     3.881877
atom    4   Tr[ns(na)] (up, down, total) =   1.12134  5.00240  6.12374
   spin  1
    eigenvalues: 
  0.155  0.155  0.257  0.277  0.277
    eigenvectors:
  0.800  0.193  0.000  0.001  0.007
  0.004  0.002  0.333  0.628  0.033
  0.000  0.005  0.333  0.308  0.354
  0.193  0.800  0.000  0.007  0.001
  0.004  0.001  0.333  0.057  0.605
    occupations:
  0.156 -0.004 -0.004 -0.000 -0.009
 -0.004  0.270 -0.006 -0.007  0.006
 -0.004 -0.006  0.270  0.007  0.006
 -0.000 -0.007  0.007  0.156 -0.000
 -0.009  0.006  0.006 -0.000  0.270
   spin  2
    eigenvalues: 
  0.997  0.997  1.003  1.003  1.003
    eigenvectors:
  0.044  0.595  0.246  0.114  0.000
  0.225  0.015  0.346  0.081  0.333
  0.119  0.121  0.002  0.424  0.333
  0.595  0.044  0.114  0.246  0.000
  0.017  0.224  0.291  0.135  0.333
    occupations:
  0.999  0.001  0.001 -0.000  0.002
  0.001  1.001  0.001  0.002 -0.001
  0.001  0.001  1.001 -0.002 -0.001
 -0.000  0.002 -0.002  0.999 -0.000
  0.002 -0.001 -0.001 -0.000  1.001
atomic mag. moment =    -3.881062
N of occupied +U levels =   12.246701
 --- exit write_ns ---

     total cpu time spent up to now is        1.8 secs

     total energy              =    -173.87177711 Ry
     Harris-Foulkes estimate   =    -174.93599285 Ry
     estimated scf accuracy    <       2.39518509 Ry

     total magnetization       =     0.00 Bohr mag/cell
     absolute magnetization    =     8.54 Bohr mag/cell

     iteration #  2     ecut=    30.00 Ry     beta=0.30
     Davidson diagonalization with overlap
     ethr =  8.55E-03,  avg # of iterations =  2.4

     total cpu time spent up to now is        2.3 secs

     total energy              =    -174.41325751 Ry
     Harris-Foulkes estimate   =    -174.42301722 Ry
     estimated scf accuracy    <       0.16412596 Ry

     total magnetization       =    -0.00 Bohr mag/cell
     absolute magnetization    =     7.23 Bohr mag/cell

     iteration #  3     ecut=    30.00 Ry     beta=0.30
     Davidson diagonalization with overlap
     ethr =  5.86E-04,  avg # of iterations =  3.0

     total cpu time spent up to now is        2.8 secs

     total energy              =    -174.44991173 Ry
     Harris-Foulkes estimate   =    -174.42932192 Ry
     estimated scf accuracy    <       0.04246344 Ry

     total magnetization       =     0.00 Bohr mag/cell
     absolute magnetization    =     7.36 Bohr mag/cell

     iteration #  4     ecut=    30.00 Ry     beta=0.30
     Davidson diagonalization with overlap
     ethr =  1.52E-04,  avg # of iterations =  1.8

     total cpu time spent up to now is        3.4 secs

     total energy              =    -174.45596482 Ry
     Harris-Foulkes estimate   =    -174.45442726 Ry
     estimated scf accuracy    <       0.01089680 Ry

     total magnetization       =    -0.09 Bohr mag/cell
     absolute magnetization    =     7.33 Bohr mag/cell

     iteration #  5     ecut=    30.00 Ry     beta=0.30
     Davidson diagonalization with overlap
     ethr =  3.89E-05,  avg # of iterations =  2.1

     total cpu time spent up to now is        3.9 secs

     total energy              =    -174.45698665 Ry
     Harris-Foulkes estimate   =    -174.45876833 Ry
     estimated scf accuracy    <       0.05683353 Ry

     total magnetization       =     0.35 Bohr mag/cell
     absolute magnetization    =     7.32 Bohr mag/cell

     iteration #  6     ecut=    30.00 Ry     beta=0.30
     Davidson diagonalization with overlap
     ethr =  3.89E-05,  avg # of iterations =  1.0

     total cpu time spent up to now is        4.4 secs

     total energy              =    -174.46179776 Ry
     Harris-Foulkes estimate   =    -174.45852349 Ry
     estimated scf accuracy    <       0.00579966 Ry

     total magnetization       =    -0.01 Bohr mag/cell
     absolute magnetization    =     7.32 Bohr mag/cell

     iteration #  7     ecut=    30.00 Ry     beta=0.30
     Davidson diagonalization with overlap
     ethr =  2.07E-05,  avg # of iterations =  1.4

     total cpu time spent up to now is        4.9 secs

     total energy              =    -174.46906884 Ry
     Harris-Foulkes estimate   =    -174.46863787 Ry
     estimated scf accuracy    <       0.00515239 Ry

     total magnetization       =    -0.09 Bohr mag/cell
     absolute magnetization    =     7.28 Bohr mag/cell

     iteration #  8     ecut=    30.00 Ry     beta=0.30
     Davidson diagonalization with overlap
     ethr =  1.84E-05,  avg # of iterations =  1.6

     total cpu time spent up to now is        5.4 secs

     total energy              =    -174.47013676 Ry
     Harris-Foulkes estimate   =    -174.47129729 Ry
     estimated scf accuracy    <       0.00181374 Ry

     total magnetization       =     0.06 Bohr mag/cell
     absolute magnetization    =     7.27 Bohr mag/cell

     iteration #  9     ecut=    30.00 Ry     beta=0.30
     Davidson diagonalization with overlap
     ethr =  6.48E-06,  avg # of iterations =  1.8

     total cpu time spent up to now is        5.9 secs

     total energy              =    -174.46970367 Ry
     Harris-Foulkes estimate   =    -174.47061913 Ry
     estimated scf accuracy    <       0.00260902 Ry

     total magnetization       =    -0.08 Bohr mag/cell
     absolute magnetization    =     7.27 Bohr mag/cell

     iteration # 10     ecut=    30.00 Ry     beta=0.30
     Davidson diagonalization with overlap
     ethr =  6.48E-06,  avg # of iterations =  1.0

     total cpu time spent up to now is        6.4 secs

     total energy              =    -174.47132683 Ry
     Harris-Foulkes estimate   =    -174.47128448 Ry
     estimated scf accuracy    <       0.00034691 Ry

     total magnetization       =     0.00 Bohr mag/cell
     absolute magnetization    =     7.24 Bohr mag/cell

     iteration # 11     ecut=    30.00 Ry     beta=0.30
     Davidson diagonalization with overlap
     ethr =  1.24E-06,  avg # of iterations =  1.2

     total cpu time spent up to now is        6.9 secs

     total energy              =    -174.47146066 Ry
     Harris-Foulkes estimate   =    -174.47133845 Ry
     estimated scf accuracy    <       0.00028083 Ry

     total magnetization       =     0.01 Bohr mag/cell
     absolute magnetization    =     7.24 Bohr mag/cell

     iteration # 12     ecut=    30.00 Ry     beta=0.30
     Davidson diagonalization with overlap
     ethr =  1.00E-06,  avg # of iterations =  1.0

     total cpu time spent up to now is        7.3 secs

     total energy              =    -174.47146504 Ry
     Harris-Foulkes estimate   =    -174.47148327 Ry
     estimated scf accuracy    <       0.00009822 Ry

     total magnetization       =    -0.00 Bohr mag/cell
     absolute magnetization    =     7.24 Bohr mag/cell

     iteration # 13     ecut=    30.00 Ry     beta=0.30
     Davidson diagonalization with overlap
     ethr =  3.51E-07,  avg # of iterations =  1.6

     total cpu time spent up to now is        7.8 secs

     total energy              =    -174.47153168 Ry
     Harris-Foulkes estimate   =    -174.47147508 Ry
     estimated scf accuracy    <       0.00012167 Ry

     total magnetization       =     0.01 Bohr mag/cell
     absolute magnetization    =     7.24 Bohr mag/cell

     iteration # 14     ecut=    30.00 Ry     beta=0.30
     Davidson diagonalization with overlap
     ethr =  3.51E-07,  avg # of iterations =  1.0

     total cpu time spent up to now is        8.3 secs

     total energy              =    -174.47155526 Ry
     Harris-Foulkes estimate   =    -174.47154986 Ry
     estimated scf accuracy    <       0.00001478 Ry

     total magnetization       =    -0.00 Bohr mag/cell
     absolute magnetization    =     7.25 Bohr mag/cell

     iteration # 15     ecut=    30.00 Ry     beta=0.30
     Davidson diagonalization with overlap
     ethr =  5.28E-08,  avg # of iterations =  2.2

     total cpu time spent up to now is        8.9 secs

     total energy              =    -174.47155944 Ry
     Harris-Foulkes estimate   =    -174.47155908 Ry
     estimated scf accuracy    <       0.00000196 Ry

     total magnetization       =    -0.00 Bohr mag/cell
     absolute magnetization    =     7.25 Bohr mag/cell

     iteration # 16     ecut=    30.00 Ry     beta=0.30
     Davidson diagonalization with overlap
     ethr =  7.01E-09,  avg # of iterations =  3.8

     total cpu time spent up to now is        9.5 secs

     total energy              =    -174.47156045 Ry
     Harris-Foulkes estimate   =    -174.47156034 Ry
     estimated scf accuracy    <       0.00000164 Ry

     total magnetization       =     0.00 Bohr mag/cell
     absolute magnetization    =     7.25 Bohr mag/cell

     iteration # 17     ecut=    30.00 Ry     beta=0.30
     Davidson diagonalization with overlap
     ethr =  5.84E-09,  avg # of iterations =  1.0
 
     Magnetic moment per site:
     atom:    1    charge:    5.8393    magn:   -0.0002    constr:    0.0000
     atom:    2    charge:    5.8393    magn:   -0.0002    constr:    0.0000
     atom:    3    charge:    5.6863    magn:    3.3443    constr:    0.0000
     atom:    4    charge:    5.6868    magn:   -3.3444    constr:    0.0000

     total cpu time spent up to now is       10.0 secs

     End of self-consistent calculation
 --- enter write_ns ---
 LDA+U parameters:
U( 2)     =  4.30000000
alpha( 2) =  0.00000000
U( 3)     =  4.30000000
alpha( 3) =  0.00000000
atom    3   Tr[ns(na)] (up, down, total) =   4.99111  1.84528  6.83639
   spin  1
    eigenvalues: 
  0.993  0.993  1.001  1.001  1.003
    eigenvectors:
  0.439  0.470  0.055  0.035  0.000
  0.057  0.004  0.524  0.082  0.333
  0.005  0.056  0.013  0.593  0.333
  0.470  0.439  0.035  0.055  0.000
  0.029  0.031  0.372  0.234  0.333
    occupations:
  0.994  0.001  0.001 -0.000  0.002
  0.001  1.001  0.001  0.002 -0.001
  0.001  0.001  1.001 -0.002 -0.001
 -0.000  0.002 -0.002  0.994 -0.000
  0.002 -0.001 -0.001 -0.000  1.001
   spin  2
    eigenvalues: 
  0.133  0.262  0.262  0.594  0.594
    eigenvectors:
  0.000  0.647  0.198  0.011  0.143
  0.333  0.076  0.027  0.529  0.034
  0.333  0.000  0.103  0.274  0.290
  0.000  0.198  0.647  0.143  0.011
  0.333  0.079  0.024  0.042  0.522
    occupations:
  0.313 -0.049 -0.049 -0.000 -0.098
 -0.049  0.406 -0.137 -0.085  0.137
 -0.049 -0.137  0.406  0.085  0.137
 -0.000 -0.085  0.085  0.313 -0.000
 -0.098  0.137  0.137 -0.000  0.406
atomic mag. moment =     3.145828
atom    4   Tr[ns(na)] (up, down, total) =   1.84558  4.99114  6.83672
   spin  1
    eigenvalues: 
  0.133  0.262  0.262  0.594  0.594
    eigenvectors:
  0.000  0.604  0.241  0.002  0.154
  0.333  0.081  0.022  0.471  0.092
  0.333  0.000  0.103  0.367  0.196
  0.000  0.241  0.604  0.154  0.002
  0.333  0.074  0.030  0.007  0.556
    occupations:
  0.314 -0.049 -0.049 -0.000 -0.098
 -0.049  0.406 -0.137 -0.085  0.137
 -0.049 -0.137  0.406  0.085  0.137
 -0.000 -0.085  0.085  0.314 -0.000
 -0.098  0.137  0.137 -0.000  0.406
   spin  2
    eigenvalues: 
  0.993  0.993  1.001  1.001  1.003
    eigenvectors:
  0.473  0.437  0.056  0.034  0.000
  0.056  0.005  0.522  0.084  0.333
  0.003  0.057  0.012  0.594  0.333
  0.437  0.473  0.034  0.056  0.000
  0.031  0.029  0.375  0.231  0.333
    occupations:
  0.994  0.001  0.001 -0.000  0.002
  0.001  1.001  0.001  0.002 -0.001
  0.001  0.001  1.001 -0.002 -0.001
 -0.000  0.002 -0.002  0.994 -0.000
  0.002 -0.001 -0.001 -0.000  1.001
atomic mag. moment =    -3.145562
N of occupied +U levels =   13.673106
 --- exit write_ns ---

 ------ SPIN UP ------------


          k = 0.0000 0.0000 0.0000 (   731 PWs)   bands (ev):

    -8.7966  -7.5695   1.9782   3.8718   3.8718   5.8139   5.8139   6.4586
     7.7601   7.7782   7.7782   8.5013   8.5013  10.5625  10.5625  11.5453
    12.6382  13.4437  13.4437  15.3608

          k =-0.7500 0.2500 0.2500 (   764 PWs)   bands (ev):

    -8.0951  -7.4191   2.6438   3.4873   3.9693   4.1097   5.5737   5.7120
     6.2468   6.3370   7.3200   8.6820   9.1442  10.3451  11.4518  12.9789
    13.2278  13.3130  17.3247  17.6727

          k =-0.5000-0.5000 0.5000 (   780 PWs)   bands (ev):

    -7.9358  -7.5700   1.9097   3.9482   4.0333   4.1617   5.2328   6.3285
     6.5889   6.5996   6.8797   8.6437   8.9529  10.5474  11.5326  12.9852
    13.5068  13.6730  15.3617  16.6743

          k =-0.2500-0.2500-0.2500 (   748 PWs)   bands (ev):

    -8.2801  -8.1991   3.1157   3.9963   3.9963   5.2648   5.8620   5.8620
     6.9310   6.9310   6.9540   9.4089   9.4089  10.4760  10.4760  12.2827
    13.1926  13.1926  14.0575  14.4192

 ------ SPIN DOWN ----------


          k = 0.0000 0.0000 0.0000 (   731 PWs)   bands (ev):

    -8.7968  -7.5697   1.9768   3.8691   3.8691   5.8094   5.8094   6.4563
     7.7599   7.7780   7.7780   8.5008   8.5008  10.5625  10.5625  11.5451
    12.6411  13.4469  13.4469  15.3607

          k =-0.7500 0.2500 0.2500 (   764 PWs)   bands (ev):

    -8.0954  -7.4191   2.6419   3.4852   3.9688   4.1073   5.5704   5.7120
     6.2469   6.3319   7.3167   8.6800   9.1425  10.3451  11.4521  12.9818
    13.2317  13.3168  17.3242  17.6726

          k =-0.5000-0.5000 0.5000 (   780 PWs)   bands (ev):

    -7.9360  -7.5702   1.9080   3.9458   4.0311   4.1615   5.2298   6.3234
     6.5887   6.5994   6.8760   8.6426   8.9516  10.5472  11.5329  12.9881
    13.5103  13.6765  15.3615  16.6739

          k =-0.2500-0.2500-0.2500 (   748 PWs)   bands (ev):

    -8.2805  -8.1991   3.1134   3.9933   3.9933   5.2650   5.8575   5.8575
     6.9315   6.9315   6.9522   9.4074   9.4074  10.4761  10.4761  12.2851
    13.1962  13.1962  14.0567  14.4199

     the Fermi energy is    10.5906 ev

!    total energy              =    -174.47156045 Ry
     Harris-Foulkes estimate   =    -174.47156059 Ry
     estimated scf accuracy    <       0.00000033 Ry

     The total energy is the sum of the following terms:

     one-electron contribution =       0.56916367 Ry
     hartree contribution      =      27.93989017 Ry
     xc contribution           =     -65.78099143 Ry
     ewald contribution        =    -137.50929535 Ry
     Hubbard energy            =       0.31371293 Ry
     smearing contrib. (-TS)   =      -0.00404045 Ry

     total magnetization       =    -0.00 Bohr mag/cell
     absolute magnetization    =     7.25 Bohr mag/cell

     convergence has been achieved in  17 iterations

     Forces acting on atoms (Ry/au):

     atom    1 type  1   force =     0.00001653    0.00001653    0.00001653
     atom    2 type  1   force =    -0.00001653   -0.00001653   -0.00001653
     atom    3 type  2   force =     0.00000000    0.00000000    0.00000000
     atom    4 type  3   force =     0.00000000    0.00000000    0.00000000

     Total force =     0.000041     Total SCF correction =     0.001239
     SCF correction compared to forces is large: reduce conv_thr to get better values


     entering subroutine stress ...

          total   stress  (Ry/bohr**3)                   (kbar)     P= -137.41
  -0.00093408  -0.00006721  -0.00006721       -137.41     -9.89     -9.89
  -0.00006721  -0.00093408  -0.00006721         -9.89   -137.41     -9.89
  -0.00006721  -0.00006721  -0.00093408         -9.89     -9.89   -137.41


     Writing output data file feo_af.save
 
     init_run     :      1.09s CPU      1.13s WALL (       1 calls)
     electrons    :      8.72s CPU      8.78s WALL (       1 calls)
     forces       :      0.17s CPU      0.17s WALL (       1 calls)
     stress       :      0.63s CPU      0.63s WALL (       1 calls)

     Called by init_run:
     wfcinit      :      0.12s CPU      0.12s WALL (       1 calls)
     potinit      :      0.04s CPU      0.04s WALL (       1 calls)

     Called by electrons:
     c_bands      :      4.51s CPU      4.55s WALL (      17 calls)
     sum_band     :      3.02s CPU      3.03s WALL (      17 calls)
     v_of_rho     :      0.32s CPU      0.32s WALL (      18 calls)
     newd         :      0.73s CPU      0.74s WALL (      18 calls)
     mix_rho      :      0.11s CPU      0.11s WALL (      17 calls)

     Called by c_bands:
     init_us_2    :      0.12s CPU      0.12s WALL (     384 calls)
     cegterg      :      4.20s CPU      4.24s WALL (     136 calls)

     Called by sum_band:
     sum_band:bec :      0.00s CPU      0.00s WALL (     136 calls)
     addusdens    :      1.81s CPU      1.83s WALL (      17 calls)

     Called by *egterg:
     h_psi        :      3.69s CPU      3.72s WALL (     387 calls)
     s_psi        :      0.10s CPU      0.10s WALL (     475 calls)
     g_psi        :      0.02s CPU      0.02s WALL (     243 calls)
     cdiaghg      :      0.29s CPU      0.29s WALL (     379 calls)

     Called by h_psi:
     add_vuspsi   :      0.08s CPU      0.08s WALL (     387 calls)
     vhpsi        :      0.06s CPU      0.06s WALL (     387 calls)

     General routines
     calbec       :      0.30s CPU      0.29s WALL (    2478 calls)
     fft          :      0.39s CPU      0.39s WALL (     306 calls)
     ffts         :      0.03s CPU      0.03s WALL (      70 calls)
     fftw         :      3.53s CPU      3.53s WALL (   14642 calls)
     interpolate  :      0.11s CPU      0.11s WALL (      70 calls)
     davcio       :      0.00s CPU      0.00s WALL (       8 calls)
 
     Parallel routines
     fft_scatter  :      0.74s CPU      0.77s WALL (   15018 calls)

     Hubbard U routines
     new_ns       :      0.02s CPU      0.02s WALL (      17 calls)
     vhpsi        :      0.06s CPU      0.06s WALL (     387 calls)
     force_hub    :      0.04s CPU      0.04s WALL (       1 calls)
     stres_hub    :      0.27s CPU      0.27s WALL (       1 calls)
 
     PWSCF        :    10.75s CPU        10.87s WALL

 
   This run was terminated on:  15:36:51  21Jul2016            

=------------------------------------------------------------------------------=
   JOB DONE.
=------------------------------------------------------------------------------=
