
     Program PWSCF v.5.4.0 (svn rev. 12782M) starts on 18Aug2016 at 16:13:49 

     This program is part of the open-source Quantum ESPRESSO suite
     for quantum simulation of materials; please cite
         "P. Giannozzi et al., J. Phys.:Condens. Matter 21 395502 (2009);
          URL http://www.quantum-espresso.org", 
     in publications or presentations arising from this work. More details at
     http://www.quantum-espresso.org/quote
 
           HOST :    x86_64-pc-linux-gnu
           ARCH :    x86_64
             CC :    icc
            CPP :    cpp
            F90 :    ifort
            F77 :    ifort
         DFLAGS :    -D__INTEL -D__FFTW -D__MPI -D__PARA -D__HDF5
      BLAS LIBS :    -lmkl_intel_lp64  -lmkl_sequential -lmkl_core
    LAPACK LIBS :    
       FFT LIBS :    
      MASS LIBS :    

     Parallel version (MPI), running on     2 processors
     R & G space division:  proc/nbgrp/npool/nimage =       2
     Waiting for input...
     Reading input from standard input
     Message from routine read_cards :
     DEPRECATED: no units specified in CELL_PARAMETERS card

     Current dimensions of program PWSCF are:
     Max number of different atomic species (ntypx) = 10
     Max number of k-points (npk) =  40000
     Max angular momentum in pseudopotentials (lmaxx) =  3
               file O.pz-rrkjus.UPF: wavefunction(s)  2S renormalized
               file Fe.pz-nd-rrkjus.UPF: wavefunction(s)  4S renormalized
               file Fe.pz-nd-rrkjus.UPF: wavefunction(s)  4S renormalized

     Subspace diagonalization in iterative solution of the eigenvalue problem:
     a serial algorithm will be used

 
     Parallelization info
     --------------------
     sticks:   dense  smooth     PW     G-vecs:    dense   smooth      PW
     Min         530     269     81                 8627     3055     539
     Max         531     270     82                 8628     3056     542
     Sum        1061     539    163                17255     6111    1081
 


     bravais-lattice index     =            0
     lattice parameter (alat)  =       8.1900  a.u.
     unit-cell volume          =     274.6766 (a.u.)^3
     number of atoms/cell      =            4
     number of atomic types    =            3
     number of electrons       =        28.00
     number of Kohn-Sham states=           20
     kinetic-energy cutoff     =      30.0000  Ry
     charge density cutoff     =     240.0000  Ry
     convergence threshold     =      1.0E-06
     mixing beta               =       0.3000
     number of iterations used =            8  plain     mixing
     Exchange-correlation      =  SLA  PZ   NOGX NOGC ( 1  1  0  0 0 0)

     celldm(1)=   8.190000  celldm(2)=   0.000000  celldm(3)=   0.000000
     celldm(4)=   0.000000  celldm(5)=   0.000000  celldm(6)=   0.000000

     crystal axes: (cart. coord. in units of alat)
               a(1) = (   0.500000   0.500000   1.000000 )  
               a(2) = (   0.500000   1.000000   0.500000 )  
               a(3) = (   1.000000   0.500000   0.500000 )  

     reciprocal axes: (cart. coord. in units 2 pi/alat)
               b(1) = ( -0.500000 -0.500000  1.500000 )  
               b(2) = ( -0.500000  1.500000 -0.500000 )  
               b(3) = (  1.500000 -0.500000 -0.500000 )  


     PseudoPot. # 1 for O  read from file:
     /home/nvarini/espresso_hdf5/espresso/pseudo/O.pz-rrkjus.UPF
     MD5 check sum: 24fb942a68ef5d262e498166c462ef4a
     Pseudo is Ultrasoft, Zval =  6.0
     Generated by new atomic code, or converted to UPF format
     Using radial grid of 1269 points,  4 beta functions with: 
                l(1) =   0
                l(2) =   0
                l(3) =   1
                l(4) =   1
     Q(r) pseudized with 0 coefficients 


     PseudoPot. # 2 for Fe read from file:
     /home/nvarini/espresso_hdf5/espresso/pseudo/Fe.pz-nd-rrkjus.UPF
     MD5 check sum: 2e083728ad07023434bc1cc596eb954d
     Pseudo is Ultrasoft + core correction, Zval =  8.0
     Generated by new atomic code, or converted to UPF format
     Using radial grid of  957 points,  6 beta functions with: 
                l(1) =   0
                l(2) =   0
                l(3) =   1
                l(4) =   1
                l(5) =   2
                l(6) =   2
     Q(r) pseudized with 0 coefficients 


     PseudoPot. # 3 for Fe read from file:
     /home/nvarini/espresso_hdf5/espresso/pseudo/Fe.pz-nd-rrkjus.UPF
     MD5 check sum: 2e083728ad07023434bc1cc596eb954d
     Pseudo is Ultrasoft + core correction, Zval =  8.0
     Generated by new atomic code, or converted to UPF format
     Using radial grid of  957 points,  6 beta functions with: 
                l(1) =   0
                l(2) =   0
                l(3) =   1
                l(4) =   1
                l(5) =   2
                l(6) =   2
     Q(r) pseudized with 0 coefficients 


     atomic species   valence    mass     pseudopotential
        O1             6.00     1.00000     O ( 1.00)
        Fe1            8.00     1.00000     Fe( 1.00)
        Fe2            8.00     1.00000     Fe( 1.00)

     Starting magnetic structure 
     atomic species   magnetization
        O1           0.000
        Fe1          0.500
        Fe2         -0.500


     Simplified LDA+U calculation (l_max = 2) with parameters (eV):
     atomic species    L          U    alpha       J0     beta
        Fe1            2     0.0000   0.0000   0.0000   0.0000
        Fe2            2     0.0000   0.0000   0.0000   0.0000



     12 Sym. Ops., with inversion, found



   Cartesian axes

     site n.     atom                  positions (alat units)
         1           O1  tau(   1) = (   0.5000000   0.5000000   0.5000000  )
         2           O1  tau(   2) = (   1.5000000   1.5000000   1.5000000  )
         3           Fe1 tau(   3) = (   0.0000000   0.0000000   0.0000000  )
         4           Fe2 tau(   4) = (   1.0000000   1.0000000   1.0000000  )

     number of k points=     4  gaussian smearing, width (Ry)=  0.0100
                       cart. coord. in units 2pi/alat
        k(    1) = (   0.0000000   0.0000000   0.0000000), wk =   0.1250000
        k(    2) = (  -0.7500000   0.2500000   0.2500000), wk =   0.3750000
        k(    3) = (  -0.5000000  -0.5000000   0.5000000), wk =   0.3750000
        k(    4) = (  -0.2500000  -0.2500000  -0.2500000), wk =   0.1250000

     Dense  grid:    17255 G-vectors     FFT dimensions: (  50,  50,  50)

     Smooth grid:     6111 G-vectors     FFT dimensions: (  36,  36,  36)

     Estimated max dynamical RAM per process >      15.53Mb

     Estimated total allocated dynamical RAM >      31.07Mb
     Generating pointlists ...
     new r_m :   0.2063 (alat units)  1.6892 (a.u.) for type    1
     new r_m :   0.2063 (alat units)  1.6892 (a.u.) for type    2
     new r_m :   0.2063 (alat units)  1.6892 (a.u.) for type    3

     Check: negative/imaginary core charge=   -0.000003    0.000000

     Initial potential from superposition of free atoms

     starting charge   27.99905, renormalised to   28.00000
     Number of +U iterations with fixed ns =  0
     Starting occupations:
 --- enter write_ns ---
 LDA+U parameters:
U( 2)     =  0.00000001
alpha( 2) =  0.00000000
U( 3)     =  0.00000001
alpha( 3) =  0.00000000
atom    3   Tr[ns(na)] (up, down, total) =   5.00000  1.00000  6.00000
   spin  1
    eigenvalues: 
  1.000  1.000  1.000  1.000  1.000
    eigenvectors:
  1.000  0.000  0.000  0.000  0.000
  0.000  1.000  0.000  0.000  0.000
  0.000  0.000  1.000  0.000  0.000
  0.000  0.000  0.000  1.000  0.000
  0.000  0.000  0.000  0.000  1.000
    occupations:
  1.000  0.000  0.000  0.000  0.000
  0.000  1.000  0.000  0.000  0.000
  0.000  0.000  1.000  0.000  0.000
  0.000  0.000  0.000  1.000  0.000
  0.000  0.000  0.000  0.000  1.000
   spin  2
    eigenvalues: 
  0.200  0.200  0.200  0.200  0.200
    eigenvectors:
  1.000  0.000  0.000  0.000  0.000
  0.000  1.000  0.000  0.000  0.000
  0.000  0.000  1.000  0.000  0.000
  0.000  0.000  0.000  1.000  0.000
  0.000  0.000  0.000  0.000  1.000
    occupations:
  0.200  0.000  0.000  0.000  0.000
  0.000  0.200  0.000  0.000  0.000
  0.000  0.000  0.200  0.000  0.000
  0.000  0.000  0.000  0.200  0.000
  0.000  0.000  0.000  0.000  0.200
atomic mag. moment =     4.000000
atom    4   Tr[ns(na)] (up, down, total) =   1.00000  5.00000  6.00000
   spin  1
    eigenvalues: 
  0.200  0.200  0.200  0.200  0.200
    eigenvectors:
  1.000  0.000  0.000  0.000  0.000
  0.000  1.000  0.000  0.000  0.000
  0.000  0.000  1.000  0.000  0.000
  0.000  0.000  0.000  1.000  0.000
  0.000  0.000  0.000  0.000  1.000
    occupations:
  0.200  0.000  0.000  0.000  0.000
  0.000  0.200  0.000  0.000  0.000
  0.000  0.000  0.200  0.000  0.000
  0.000  0.000  0.000  0.200  0.000
  0.000  0.000  0.000  0.000  0.200
   spin  2
    eigenvalues: 
  1.000  1.000  1.000  1.000  1.000
    eigenvectors:
  1.000  0.000  0.000  0.000  0.000
  0.000  1.000  0.000  0.000  0.000
  0.000  0.000  1.000  0.000  0.000
  0.000  0.000  0.000  1.000  0.000
  0.000  0.000  0.000  0.000  1.000
    occupations:
  1.000  0.000  0.000  0.000  0.000
  0.000  1.000  0.000  0.000  0.000
  0.000  0.000  1.000  0.000  0.000
  0.000  0.000  0.000  1.000  0.000
  0.000  0.000  0.000  0.000  1.000
atomic mag. moment =    -4.000000
N of occupied +U levels =   12.000000
 --- exit write_ns ---
 Atomic wfc used for LDA+U Projector are NOT orthogonalized
     Starting wfc are   20 randomized atomic wfcs

     total cpu time spent up to now is        1.2 secs

     per-process dynamical memory:    44.4 Mb

     Self-consistent Calculation

     iteration #  1     ecut=    30.00 Ry     beta=0.30
     Davidson diagonalization with overlap
     ethr =  1.00E-02,  avg # of iterations =  2.2
 --- enter write_ns ---
 LDA+U parameters:
U( 2)     =  0.00000001
alpha( 2) =  0.00000000
U( 3)     =  0.00000001
alpha( 3) =  0.00000000
atom    3   Tr[ns(na)] (up, down, total) =   4.96654  1.45706  6.42360
   spin  1
    eigenvalues: 
  0.987  0.987  0.997  0.997  0.998
    eigenvectors:
  0.602  0.318  0.047  0.033  0.000
  0.045  0.009  0.540  0.074  0.333
  0.001  0.053  0.017  0.596  0.333
  0.318  0.602  0.033  0.047  0.000
  0.035  0.018  0.363  0.251  0.333
    occupations:
  0.988  0.001  0.001 -0.000  0.002
  0.001  0.997  0.001  0.002 -0.001
  0.001  0.001  0.997 -0.002 -0.001
 -0.000  0.002 -0.002  0.988 -0.000
  0.002 -0.001 -0.001 -0.000  0.997
   spin  2
    eigenvalues: 
  0.200  0.200  0.335  0.335  0.387
    eigenvectors:
  0.789  0.206  0.001  0.004  0.000
  0.002  0.001  0.662  0.001  0.333
  0.000  0.003  0.143  0.520  0.333
  0.206  0.789  0.004  0.001  0.000
  0.003  0.001  0.189  0.474  0.333
    occupations:
  0.201 -0.004 -0.004 -0.000 -0.008
 -0.004  0.352  0.018 -0.007 -0.018
 -0.004  0.018  0.352  0.007 -0.018
 -0.000 -0.007  0.007  0.201 -0.000
 -0.008 -0.018 -0.018 -0.000  0.352
atomic mag. moment =     3.509482
atom    4   Tr[ns(na)] (up, down, total) =   1.45705  4.96666  6.42371
   spin  1
    eigenvalues: 
  0.200  0.200  0.335  0.335  0.387
    eigenvectors:
  0.600  0.395  0.000  0.005  0.000
  0.003  0.000  0.628  0.035  0.333
  0.000  0.003  0.312  0.351  0.333
  0.395  0.600  0.005  0.000  0.000
  0.002  0.001  0.055  0.609  0.333
    occupations:
  0.201 -0.004 -0.004 -0.000 -0.008
 -0.004  0.352  0.018 -0.007 -0.018
 -0.004  0.018  0.352  0.007 -0.018
 -0.000 -0.007  0.007  0.201 -0.000
 -0.008 -0.018 -0.018 -0.000  0.352
   spin  2
    eigenvalues: 
  0.987  0.987  0.997  0.997  0.998
    eigenvectors:
  0.535  0.383  0.060  0.022  0.000
  0.049  0.006  0.470  0.142  0.333
  0.002  0.053  0.000  0.612  0.333
  0.383  0.535  0.022  0.060  0.000
  0.032  0.023  0.447  0.165  0.333
    occupations:
  0.988  0.001  0.001 -0.000  0.002
  0.001  0.997  0.001  0.002 -0.001
  0.001  0.001  0.997 -0.002 -0.001
 -0.000  0.002 -0.002  0.988 -0.000
  0.002 -0.001 -0.001 -0.000  0.997
atomic mag. moment =    -3.509607
N of occupied +U levels =   12.847308
 --- exit write_ns ---

     total cpu time spent up to now is        1.8 secs

     total energy              =    -174.40727217 Ry
     Harris-Foulkes estimate   =    -175.24259674 Ry
     estimated scf accuracy    <       1.85429719 Ry

     total magnetization       =    -0.00 Bohr mag/cell
     absolute magnetization    =     7.81 Bohr mag/cell

     iteration #  2     ecut=    30.00 Ry     beta=0.30
     Davidson diagonalization with overlap
     ethr =  6.62E-03,  avg # of iterations =  2.0

     total cpu time spent up to now is        2.3 secs

     total energy              =    -174.79939412 Ry
     Harris-Foulkes estimate   =    -174.82918322 Ry
     estimated scf accuracy    <       0.11242439 Ry

     total magnetization       =    -0.01 Bohr mag/cell
     absolute magnetization    =     6.81 Bohr mag/cell

     iteration #  3     ecut=    30.00 Ry     beta=0.30
     Davidson diagonalization with overlap
     ethr =  4.02E-04,  avg # of iterations =  3.2

     total cpu time spent up to now is        2.9 secs

     total energy              =    -174.82062388 Ry
     Harris-Foulkes estimate   =    -174.81958368 Ry
     estimated scf accuracy    <       0.02080351 Ry

     total magnetization       =     0.06 Bohr mag/cell
     absolute magnetization    =     7.04 Bohr mag/cell

     iteration #  4     ecut=    30.00 Ry     beta=0.30
     Davidson diagonalization with overlap
     ethr =  7.43E-05,  avg # of iterations =  2.4

     total cpu time spent up to now is        3.4 secs

     total energy              =    -174.81703260 Ry
     Harris-Foulkes estimate   =    -174.83290067 Ry
     estimated scf accuracy    <       0.22366098 Ry

     total magnetization       =    -0.74 Bohr mag/cell
     absolute magnetization    =     7.01 Bohr mag/cell

     iteration #  5     ecut=    30.00 Ry     beta=0.30
     Davidson diagonalization with overlap
     ethr =  7.43E-05,  avg # of iterations =  1.5

     total cpu time spent up to now is        3.9 secs

     total energy              =    -174.82409879 Ry
     Harris-Foulkes estimate   =    -174.82431265 Ry
     estimated scf accuracy    <       0.00157409 Ry

     total magnetization       =     0.01 Bohr mag/cell
     absolute magnetization    =     7.05 Bohr mag/cell

     iteration #  6     ecut=    30.00 Ry     beta=0.30
     Davidson diagonalization with overlap
     ethr =  5.62E-06,  avg # of iterations =  2.8

     total cpu time spent up to now is        4.4 secs

     total energy              =    -174.82457558 Ry
     Harris-Foulkes estimate   =    -174.82441868 Ry
     estimated scf accuracy    <       0.00032187 Ry

     total magnetization       =     0.01 Bohr mag/cell
     absolute magnetization    =     7.08 Bohr mag/cell

     iteration #  7     ecut=    30.00 Ry     beta=0.30
     Davidson diagonalization with overlap
     ethr =  1.15E-06,  avg # of iterations =  2.0

     total cpu time spent up to now is        5.0 secs

     total energy              =    -174.82463181 Ry
     Harris-Foulkes estimate   =    -174.82463513 Ry
     estimated scf accuracy    <       0.00010016 Ry

     total magnetization       =    -0.01 Bohr mag/cell
     absolute magnetization    =     7.08 Bohr mag/cell

     iteration #  8     ecut=    30.00 Ry     beta=0.30
     Davidson diagonalization with overlap
     ethr =  3.58E-07,  avg # of iterations =  2.0

     total cpu time spent up to now is        5.5 secs

     total energy              =    -174.82464076 Ry
     Harris-Foulkes estimate   =    -174.82465503 Ry
     estimated scf accuracy    <       0.00022557 Ry

     total magnetization       =     0.03 Bohr mag/cell
     absolute magnetization    =     7.09 Bohr mag/cell

     iteration #  9     ecut=    30.00 Ry     beta=0.30
     Davidson diagonalization with overlap
     ethr =  3.58E-07,  avg # of iterations =  1.0

     total cpu time spent up to now is        6.0 secs

     total energy              =    -174.82465340 Ry
     Harris-Foulkes estimate   =    -174.82465649 Ry
     estimated scf accuracy    <       0.00005496 Ry

     total magnetization       =    -0.01 Bohr mag/cell
     absolute magnetization    =     7.09 Bohr mag/cell

     iteration # 10     ecut=    30.00 Ry     beta=0.30
     Davidson diagonalization with overlap
     ethr =  1.96E-07,  avg # of iterations =  1.0
 
     Magnetic moment per site:
     atom:    1    charge:    5.8161    magn:    0.0000    constr:    0.0000
     atom:    2    charge:    5.8161    magn:    0.0000    constr:    0.0000
     atom:    3    charge:    5.7013    magn:    3.2797    constr:    0.0000
     atom:    4    charge:    5.7025    magn:   -3.2786    constr:    0.0000

     total cpu time spent up to now is        6.5 secs

     End of self-consistent calculation
 --- enter write_ns ---
 LDA+U parameters:
U( 2)     =  0.00000001
alpha( 2) =  0.00000000
U( 3)     =  0.00000001
alpha( 3) =  0.00000000
atom    3   Tr[ns(na)] (up, down, total) =   4.97025  1.96816  6.93841
   spin  1
    eigenvalues: 
  0.986  0.986  1.000  1.000  1.000
    eigenvectors:
  0.538  0.441  0.014  0.006  0.000
  0.012  0.001  0.530  0.123  0.333
  0.001  0.013  0.004  0.650  0.333
  0.441  0.538  0.006  0.014  0.000
  0.007  0.006  0.446  0.207  0.333
    occupations:
  0.986  0.001  0.001 -0.000  0.002
  0.001  0.999  0.000  0.001 -0.000
  0.001  0.000  0.999 -0.001 -0.000
 -0.000  0.001 -0.001  0.986 -0.000
  0.002 -0.000 -0.000 -0.000  0.999
   spin  2
    eigenvalues: 
  0.330  0.330  0.430  0.439  0.439
    eigenvectors:
  0.612  0.253  0.000  0.002  0.132
  0.071  0.019  0.333  0.489  0.088
  0.000  0.089  0.333  0.368  0.209
  0.253  0.612  0.000  0.132  0.002
  0.063  0.026  0.333  0.009  0.569
    occupations:
  0.345 -0.015 -0.015 -0.000 -0.030
 -0.015  0.426  0.002 -0.026 -0.002
 -0.015  0.002  0.426  0.026 -0.002
 -0.000 -0.026  0.026  0.345 -0.000
 -0.030 -0.002 -0.002 -0.000  0.426
atomic mag. moment =     3.002096
atom    4   Tr[ns(na)] (up, down, total) =   1.96946  4.97026  6.93972
   spin  1
    eigenvalues: 
  0.330  0.330  0.431  0.439  0.439
    eigenvectors:
  0.700  0.166  0.000  0.008  0.126
  0.061  0.028  0.333  0.533  0.045
  0.000  0.089  0.333  0.301  0.277
  0.166  0.700  0.000  0.126  0.008
  0.072  0.017  0.333  0.033  0.545
    occupations:
  0.345 -0.015 -0.015 -0.000 -0.030
 -0.015  0.427  0.002 -0.026 -0.002
 -0.015  0.002  0.427  0.026 -0.002
 -0.000 -0.026  0.026  0.345 -0.000
 -0.030 -0.002 -0.002 -0.000  0.427
   spin  2
    eigenvalues: 
  0.986  0.986  1.000  1.000  1.000
    eigenvectors:
  0.534  0.446  0.014  0.006  0.000
  0.012  0.001  0.515  0.138  0.333
  0.001  0.013  0.001  0.652  0.333
  0.446  0.534  0.006  0.014  0.000
  0.007  0.006  0.463  0.190  0.333
    occupations:
  0.986  0.001  0.001 -0.000  0.002
  0.001  0.999  0.000  0.001 -0.000
  0.001  0.000  0.999 -0.001 -0.000
 -0.000  0.001 -0.001  0.986 -0.000
  0.002 -0.000 -0.000 -0.000  0.999
atomic mag. moment =    -3.000794
N of occupied +U levels =   13.878127
 --- exit write_ns ---

 ------ SPIN UP ------------


          k = 0.0000 0.0000 0.0000 (   731 PWs)   bands (ev):

    -8.9528  -7.7463   2.7542   5.1281   5.1281   7.5767   7.6002   7.6002
     7.7783   7.7783   8.0650   8.9388   8.9388  11.0562  11.0562  11.2572
    11.5026  12.8930  12.8930  15.3690

          k =-0.7500 0.2500 0.2500 (   764 PWs)   bands (ev):

    -7.7703  -7.7510   3.6510   3.9132   4.7748   5.3284   5.3839   6.0706
     7.7224   8.2477   8.6480   9.6399   9.8410  10.4286  11.6996  11.8241
    12.6009  12.6277  17.2955  17.6039

          k =-0.5000-0.5000 0.5000 (   780 PWs)   bands (ev):

    -7.7615  -7.7500   2.7899   4.0524   5.1685   5.1909   6.4324   6.4450
     7.1585   8.2361   8.5576   9.3832   9.6069  10.7259  11.7098  11.8178
    13.0239  13.0941  15.3294  16.7014

          k =-0.2500-0.2500-0.2500 (   748 PWs)   bands (ev):

    -8.4142  -8.3802   4.4379   4.8301   5.5357   5.5357   6.5046   6.5046
     7.8489   7.8489   8.2987   9.9330   9.9330  10.9596  10.9718  10.9718
    12.4955  12.4956  13.9943  14.2633

 ------ SPIN DOWN ----------


          k = 0.0000 0.0000 0.0000 (   731 PWs)   bands (ev):

    -8.9528  -7.7463   2.7541   5.1280   5.1280   7.5767   7.6002   7.6002
     7.7781   7.7781   8.0646   8.9386   8.9386  11.0568  11.0568  11.2576
    11.5026  12.8934  12.8934  15.3690

          k =-0.7500 0.2500 0.2500 (   764 PWs)   bands (ev):

    -7.7703  -7.7510   3.6510   3.9132   4.7747   5.3285   5.3838   6.0707
     7.7220   8.2474   8.6476   9.6396   9.8408  10.4291  11.7003  11.8247
    12.6014  12.6283  17.2955  17.6039

          k =-0.5000-0.5000 0.5000 (   780 PWs)   bands (ev):

    -7.7615  -7.7500   2.7898   4.0524   5.1684   5.1908   6.4324   6.4450
     7.1582   8.2357   8.5571   9.3831   9.6067  10.7263  11.7105  11.8183
    13.0244  13.0946  15.3293  16.7013

          k =-0.2500-0.2500-0.2500 (   748 PWs)   bands (ev):

    -8.4142  -8.3803   4.4378   4.8302   5.5356   5.5356   6.5046   6.5046
     7.8487   7.8487   8.2982   9.9327   9.9327  10.9600  10.9724  10.9724
    12.4961  12.4961  13.9943  14.2633

     the Fermi energy is    10.9765 ev

!    total energy              =    -174.82465594 Ry
     Harris-Foulkes estimate   =    -174.82465632 Ry
     estimated scf accuracy    <       0.00000068 Ry

     The total energy is the sum of the following terms:

     one-electron contribution =       0.56204487 Ry
     hartree contribution      =      27.86083069 Ry
     xc contribution           =     -65.73505241 Ry
     ewald contribution        =    -137.50929535 Ry
     Hubbard energy            =       0.00000000 Ry
     smearing contrib. (-TS)   =      -0.00318375 Ry

     total magnetization       =     0.00 Bohr mag/cell
     absolute magnetization    =     7.09 Bohr mag/cell

     convergence has been achieved in  10 iterations

     Forces acting on atoms (Ry/au):

     atom    1 type  1   force =     0.00009955    0.00009955    0.00009955
     atom    2 type  1   force =    -0.00009955   -0.00009955   -0.00009955
     atom    3 type  2   force =    -0.00000000    0.00000000   -0.00000000
     atom    4 type  3   force =    -0.00000000   -0.00000000    0.00000000

     Total force =     0.000244     Total SCF correction =     0.001782
     SCF correction compared to forces is large: reduce conv_thr to get better values


     entering subroutine stress ...

          total   stress  (Ry/bohr**3)                   (kbar)     P= -236.25
  -0.00160597   0.00014889   0.00014889       -236.25     21.90     21.90
   0.00014889  -0.00160597   0.00014889         21.90   -236.25     21.90
   0.00014889   0.00014889  -0.00160597         21.90     21.90   -236.25


     Writing output data file feo_af.save
 
     init_run     :      1.10s CPU      1.13s WALL (       1 calls)
     electrons    :      5.23s CPU      5.24s WALL (       1 calls)
     forces       :      0.17s CPU      0.17s WALL (       1 calls)
     stress       :      0.63s CPU      0.63s WALL (       1 calls)

     Called by init_run:
     wfcinit      :      0.12s CPU      0.12s WALL (       1 calls)
     potinit      :      0.04s CPU      0.04s WALL (       1 calls)

     Called by electrons:
     c_bands      :      2.76s CPU      2.77s WALL (      10 calls)
     sum_band     :      1.78s CPU      1.78s WALL (      10 calls)
     v_of_rho     :      0.20s CPU      0.20s WALL (      11 calls)
     newd         :      0.43s CPU      0.46s WALL (      11 calls)
     mix_rho      :      0.06s CPU      0.06s WALL (      10 calls)

     Called by c_bands:
     init_us_2    :      0.09s CPU      0.08s WALL (     272 calls)
     cegterg      :      2.57s CPU      2.58s WALL (      80 calls)

     Called by sum_band:
     sum_band:bec :      0.00s CPU      0.00s WALL (      80 calls)
     addusdens    :      1.07s CPU      1.07s WALL (      10 calls)

     Called by *egterg:
     h_psi        :      2.28s CPU      2.29s WALL (     249 calls)
     s_psi        :      0.07s CPU      0.07s WALL (     337 calls)
     g_psi        :      0.01s CPU      0.01s WALL (     161 calls)
     cdiaghg      :      0.19s CPU      0.19s WALL (     241 calls)

     Called by h_psi:
     h_psi:pot    :      2.25s CPU      2.25s WALL (     249 calls)
     h_psi:calbec :      0.06s CPU      0.06s WALL (     249 calls)
     add_vuspsi   :      0.05s CPU      0.05s WALL (     249 calls)
     vhpsi        :      0.04s CPU      0.03s WALL (     249 calls)

     General routines
     calbec       :      0.23s CPU      0.22s WALL (    2090 calls)
     fft          :      0.23s CPU      0.23s WALL (     187 calls)
     ffts         :      0.02s CPU      0.02s WALL (      42 calls)
     fftw         :      2.15s CPU      2.15s WALL (    8930 calls)
     interpolate  :      0.07s CPU      0.07s WALL (      42 calls)
     davcio       :      0.00s CPU      0.00s WALL (       8 calls)
 
     Parallel routines
     fft_scatter  :      0.43s CPU      0.46s WALL (    9159 calls)

     Hubbard U routines
     new_ns       :      0.01s CPU      0.01s WALL (      10 calls)
     vhpsi        :      0.04s CPU      0.03s WALL (     249 calls)
     force_hub    :      0.04s CPU      0.04s WALL (       1 calls)
     stres_hub    :      0.27s CPU      0.27s WALL (       1 calls)
 
     PWSCF        :     7.29s CPU         7.34s WALL

 
   This run was terminated on:  16:13:56  18Aug2016            

=------------------------------------------------------------------------------=
   JOB DONE.
=------------------------------------------------------------------------------=
