
     Program PWSCF v.5.4.0 (svn rev. 12828M) starts on 23Aug2016 at 14:34:17 

     This program is part of the open-source Quantum ESPRESSO suite
     for quantum simulation of materials; please cite
         "P. Giannozzi et al., J. Phys.:Condens. Matter 21 395502 (2009);
          URL http://www.quantum-espresso.org", 
     in publications or presentations arising from this work. More details at
     http://www.quantum-espresso.org/quote
 
           HOST :    x86_64-pc-linux-gnu
           ARCH :    x86_64
             CC :    icc
            CPP :    cpp
            F90 :    ifort
            F77 :    ifort
         DFLAGS :    -D__INTEL -D__FFTW -D__MPI -D__PARA -D__HDF5
      BLAS LIBS :    -lmkl_intel_lp64  -lmkl_sequential -lmkl_core
    LAPACK LIBS :    
       FFT LIBS :    
      MASS LIBS :    

     Parallel version (MPI), running on     2 processors
     R & G space division:  proc/nbgrp/npool/nimage =       2
     Waiting for input...
     Reading input from standard input
     Message from routine read_cards :
     DEPRECATED: no units specified in CELL_PARAMETERS card

     Current dimensions of program PWSCF are:
     Max number of different atomic species (ntypx) = 10
     Max number of k-points (npk) =  40000
     Max angular momentum in pseudopotentials (lmaxx) =  3
               file O.pz-rrkjus.UPF: wavefunction(s)  2S renormalized
               file Fe.pz-nd-rrkjus.UPF: wavefunction(s)  4S renormalized
               file Fe.pz-nd-rrkjus.UPF: wavefunction(s)  4S renormalized

     Subspace diagonalization in iterative solution of the eigenvalue problem:
     a serial algorithm will be used

 
     Parallelization info
     --------------------
     sticks:   dense  smooth     PW     G-vecs:    dense   smooth      PW
     Min         530     269     81                 8627     3055     539
     Max         531     270     82                 8628     3056     542
     Sum        1061     539    163                17255     6111    1081
 


     bravais-lattice index     =            0
     lattice parameter (alat)  =       8.1900  a.u.
     unit-cell volume          =     274.6766 (a.u.)^3
     number of atoms/cell      =            4
     number of atomic types    =            3
     number of electrons       =        28.00
     number of Kohn-Sham states=           20
     kinetic-energy cutoff     =      30.0000  Ry
     charge density cutoff     =     240.0000  Ry
     convergence threshold     =      1.0E-06
     mixing beta               =       0.3000
     number of iterations used =            8  plain     mixing
     Exchange-correlation      =  SLA  PZ   NOGX NOGC ( 1  1  0  0 0 0)

     celldm(1)=   8.190000  celldm(2)=   0.000000  celldm(3)=   0.000000
     celldm(4)=   0.000000  celldm(5)=   0.000000  celldm(6)=   0.000000

     crystal axes: (cart. coord. in units of alat)
               a(1) = (   0.500000   0.500000   1.000000 )  
               a(2) = (   0.500000   1.000000   0.500000 )  
               a(3) = (   1.000000   0.500000   0.500000 )  

     reciprocal axes: (cart. coord. in units 2 pi/alat)
               b(1) = ( -0.500000 -0.500000  1.500000 )  
               b(2) = ( -0.500000  1.500000 -0.500000 )  
               b(3) = (  1.500000 -0.500000 -0.500000 )  


     PseudoPot. # 1 for O  read from file:
     /home/nvarini/espresso_hdf5/espresso/pseudo/O.pz-rrkjus.UPF
     MD5 check sum: 24fb942a68ef5d262e498166c462ef4a
     Pseudo is Ultrasoft, Zval =  6.0
     Generated by new atomic code, or converted to UPF format
     Using radial grid of 1269 points,  4 beta functions with: 
                l(1) =   0
                l(2) =   0
                l(3) =   1
                l(4) =   1
     Q(r) pseudized with 0 coefficients 


     PseudoPot. # 2 for Fe read from file:
     /home/nvarini/espresso_hdf5/espresso/pseudo/Fe.pz-nd-rrkjus.UPF
     MD5 check sum: 2e083728ad07023434bc1cc596eb954d
     Pseudo is Ultrasoft + core correction, Zval =  8.0
     Generated by new atomic code, or converted to UPF format
     Using radial grid of  957 points,  6 beta functions with: 
                l(1) =   0
                l(2) =   0
                l(3) =   1
                l(4) =   1
                l(5) =   2
                l(6) =   2
     Q(r) pseudized with 0 coefficients 


     PseudoPot. # 3 for Fe read from file:
     /home/nvarini/espresso_hdf5/espresso/pseudo/Fe.pz-nd-rrkjus.UPF
     MD5 check sum: 2e083728ad07023434bc1cc596eb954d
     Pseudo is Ultrasoft + core correction, Zval =  8.0
     Generated by new atomic code, or converted to UPF format
     Using radial grid of  957 points,  6 beta functions with: 
                l(1) =   0
                l(2) =   0
                l(3) =   1
                l(4) =   1
                l(5) =   2
                l(6) =   2
     Q(r) pseudized with 0 coefficients 


     atomic species   valence    mass     pseudopotential
        O1             6.00     1.00000     O ( 1.00)
        Fe1            8.00     1.00000     Fe( 1.00)
        Fe2            8.00     1.00000     Fe( 1.00)

     Starting magnetic structure 
     atomic species   magnetization
        O1           0.000
        Fe1          0.500
        Fe2         -0.500


     Simplified LDA+U calculation (l_max = 2) with parameters (eV):
     atomic species    L          U    alpha       J0     beta
        Fe1            2     4.3000   0.0000   0.0000   0.0000
        Fe2            2     4.3000   0.0000   0.0000   0.0000



     12 Sym. Ops., with inversion, found



   Cartesian axes

     site n.     atom                  positions (alat units)
         1           O1  tau(   1) = (   0.5000000   0.5000000   0.5000000  )
         2           O1  tau(   2) = (   1.5000000   1.5000000   1.5000000  )
         3           Fe1 tau(   3) = (   0.0000000   0.0000000   0.0000000  )
         4           Fe2 tau(   4) = (   1.0000000   1.0000000   1.0000000  )

     number of k points=     4  gaussian smearing, width (Ry)=  0.0100
                       cart. coord. in units 2pi/alat
        k(    1) = (   0.0000000   0.0000000   0.0000000), wk =   0.1250000
        k(    2) = (  -0.7500000   0.2500000   0.2500000), wk =   0.3750000
        k(    3) = (  -0.5000000  -0.5000000   0.5000000), wk =   0.3750000
        k(    4) = (  -0.2500000  -0.2500000  -0.2500000), wk =   0.1250000

     Dense  grid:    17255 G-vectors     FFT dimensions: (  50,  50,  50)

     Smooth grid:     6111 G-vectors     FFT dimensions: (  36,  36,  36)

     Estimated max dynamical RAM per process >      15.53Mb

     Estimated total allocated dynamical RAM >      31.07Mb
     Generating pointlists ...
     new r_m :   0.2063 (alat units)  1.6892 (a.u.) for type    1
     new r_m :   0.2063 (alat units)  1.6892 (a.u.) for type    2
     new r_m :   0.2063 (alat units)  1.6892 (a.u.) for type    3

     Check: negative/imaginary core charge=   -0.000003    0.000000

     Initial potential from superposition of free atoms

     starting charge   27.99905, renormalised to   28.00000
     Number of +U iterations with fixed ns =  0
     Starting occupations:
 --- enter write_ns ---
 LDA+U parameters:
U( 2)     =  4.30000000
alpha( 2) =  0.00000000
U( 3)     =  4.30000000
alpha( 3) =  0.00000000
atom    3   Tr[ns(na)] (up, down, total) =   5.00000  1.00000  6.00000
   spin  1
    eigenvalues: 
  1.000  1.000  1.000  1.000  1.000
    eigenvectors:
  1.000  0.000  0.000  0.000  0.000
  0.000  1.000  0.000  0.000  0.000
  0.000  0.000  1.000  0.000  0.000
  0.000  0.000  0.000  1.000  0.000
  0.000  0.000  0.000  0.000  1.000
    occupations:
  1.000  0.000  0.000  0.000  0.000
  0.000  1.000  0.000  0.000  0.000
  0.000  0.000  1.000  0.000  0.000
  0.000  0.000  0.000  1.000  0.000
  0.000  0.000  0.000  0.000  1.000
   spin  2
    eigenvalues: 
  0.200  0.200  0.200  0.200  0.200
    eigenvectors:
  1.000  0.000  0.000  0.000  0.000
  0.000  1.000  0.000  0.000  0.000
  0.000  0.000  1.000  0.000  0.000
  0.000  0.000  0.000  1.000  0.000
  0.000  0.000  0.000  0.000  1.000
    occupations:
  0.200  0.000  0.000  0.000  0.000
  0.000  0.200  0.000  0.000  0.000
  0.000  0.000  0.200  0.000  0.000
  0.000  0.000  0.000  0.200  0.000
  0.000  0.000  0.000  0.000  0.200
atomic mag. moment =     4.000000
atom    4   Tr[ns(na)] (up, down, total) =   1.00000  5.00000  6.00000
   spin  1
    eigenvalues: 
  0.200  0.200  0.200  0.200  0.200
    eigenvectors:
  1.000  0.000  0.000  0.000  0.000
  0.000  1.000  0.000  0.000  0.000
  0.000  0.000  1.000  0.000  0.000
  0.000  0.000  0.000  1.000  0.000
  0.000  0.000  0.000  0.000  1.000
    occupations:
  0.200  0.000  0.000  0.000  0.000
  0.000  0.200  0.000  0.000  0.000
  0.000  0.000  0.200  0.000  0.000
  0.000  0.000  0.000  0.200  0.000
  0.000  0.000  0.000  0.000  0.200
   spin  2
    eigenvalues: 
  1.000  1.000  1.000  1.000  1.000
    eigenvectors:
  1.000  0.000  0.000  0.000  0.000
  0.000  1.000  0.000  0.000  0.000
  0.000  0.000  1.000  0.000  0.000
  0.000  0.000  0.000  1.000  0.000
  0.000  0.000  0.000  0.000  1.000
    occupations:
  1.000  0.000  0.000  0.000  0.000
  0.000  1.000  0.000  0.000  0.000
  0.000  0.000  1.000  0.000  0.000
  0.000  0.000  0.000  1.000  0.000
  0.000  0.000  0.000  0.000  1.000
atomic mag. moment =    -4.000000
N of occupied +U levels =   12.000000
 --- exit write_ns ---
 Atomic wfc used for LDA+U Projector are NOT orthogonalized
     Starting wfc are   20 randomized atomic wfcs

     total cpu time spent up to now is        1.2 secs

     per-process dynamical memory:    44.4 Mb

     Self-consistent Calculation

     iteration #  1     ecut=    30.00 Ry     beta=0.30
     Davidson diagonalization with overlap
     ethr =  1.00E-02,  avg # of iterations =  2.5
 --- enter write_ns ---
 LDA+U parameters:
U( 2)     =  4.30000000
alpha( 2) =  0.00000000
U( 3)     =  4.30000000
alpha( 3) =  0.00000000
atom    3   Tr[ns(na)] (up, down, total) =   5.00240  1.12115  6.12355
   spin  1
    eigenvalues: 
  0.997  0.997  1.003  1.003  1.003
    eigenvectors:
  0.474  0.172  0.269  0.085  0.000
  0.181  0.055  0.318  0.112  0.333
  0.000  0.236  0.000  0.431  0.333
  0.172  0.474  0.085  0.269  0.000
  0.173  0.063  0.328  0.103  0.333
    occupations:
  0.999  0.001  0.001 -0.000  0.002
  0.001  1.001  0.001  0.002 -0.001
  0.001  0.001  1.001 -0.002 -0.001
 -0.000  0.002 -0.002  0.999 -0.000
  0.002 -0.001 -0.001 -0.000  1.001
   spin  2
    eigenvalues: 
  0.155  0.155  0.257  0.277  0.277
    eigenvectors:
  0.656  0.337  0.000  0.001  0.006
  0.004  0.001  0.333  0.658  0.004
  0.000  0.005  0.333  0.210  0.452
  0.337  0.656  0.000  0.006  0.001
  0.003  0.002  0.333  0.125  0.537
    occupations:
  0.156 -0.004 -0.004 -0.000 -0.009
 -0.004  0.270 -0.006 -0.007  0.006
 -0.004 -0.006  0.270  0.007  0.006
 -0.000 -0.007  0.007  0.156 -0.000
 -0.009  0.006  0.006 -0.000  0.270
atomic mag. moment =     3.881250
atom    4   Tr[ns(na)] (up, down, total) =   1.12093  5.00244  6.12337
   spin  1
    eigenvalues: 
  0.155  0.155  0.257  0.277  0.277
    eigenvectors:
  0.755  0.237  0.000  0.002  0.006
  0.004  0.001  0.333  0.661  0.001
  0.000  0.005  0.333  0.145  0.516
  0.237  0.755  0.000  0.006  0.002
  0.004  0.001  0.333  0.186  0.475
    occupations:
  0.156 -0.004 -0.004 -0.000 -0.009
 -0.004  0.269 -0.006 -0.007  0.006
 -0.004 -0.006  0.269  0.007  0.006
 -0.000 -0.007  0.007  0.156 -0.000
 -0.009  0.006  0.006 -0.000  0.269
   spin  2
    eigenvalues: 
  0.997  0.997  1.003  1.003  1.003
    eigenvectors:
  0.020  0.619  0.285  0.075  0.000
  0.213  0.028  0.301  0.125  0.333
  0.140  0.100  0.001  0.425  0.333
  0.619  0.020  0.075  0.285  0.000
  0.008  0.233  0.337  0.089  0.333
    occupations:
  0.999  0.001  0.001 -0.000  0.002
  0.001  1.001  0.001  0.002 -0.001
  0.001  0.001  1.001 -0.002 -0.001
 -0.000  0.002 -0.002  0.999 -0.000
  0.002 -0.001 -0.001 -0.000  1.001
atomic mag. moment =    -3.881511
N of occupied +U levels =   12.246912
 --- exit write_ns ---

     total cpu time spent up to now is        1.8 secs

     total energy              =    -173.87063962 Ry
     Harris-Foulkes estimate   =    -174.93591927 Ry
     estimated scf accuracy    <       2.39752548 Ry

     total magnetization       =    -0.00 Bohr mag/cell
     absolute magnetization    =     8.54 Bohr mag/cell

     iteration #  2     ecut=    30.00 Ry     beta=0.30
     Davidson diagonalization with overlap
     ethr =  8.56E-03,  avg # of iterations =  2.2

     total cpu time spent up to now is        2.3 secs

     total energy              =    -174.41294539 Ry
     Harris-Foulkes estimate   =    -174.42270811 Ry
     estimated scf accuracy    <       0.16414327 Ry

     total magnetization       =    -0.01 Bohr mag/cell
     absolute magnetization    =     7.23 Bohr mag/cell

     iteration #  3     ecut=    30.00 Ry     beta=0.30
     Davidson diagonalization with overlap
     ethr =  5.86E-04,  avg # of iterations =  3.2

     total cpu time spent up to now is        2.8 secs

     total energy              =    -174.44559326 Ry
     Harris-Foulkes estimate   =    -174.42944102 Ry
     estimated scf accuracy    <       0.04508739 Ry

     total magnetization       =     0.08 Bohr mag/cell
     absolute magnetization    =     7.36 Bohr mag/cell

     iteration #  4     ecut=    30.00 Ry     beta=0.30
     Davidson diagonalization with overlap
     ethr =  1.61E-04,  avg # of iterations =  1.9

     total cpu time spent up to now is        3.3 secs

     total energy              =    -174.44650724 Ry
     Harris-Foulkes estimate   =    -174.46266983 Ry
     estimated scf accuracy    <       0.24763175 Ry

     total magnetization       =    -0.73 Bohr mag/cell
     absolute magnetization    =     7.33 Bohr mag/cell

     iteration #  5     ecut=    30.00 Ry     beta=0.30
     Davidson diagonalization with overlap
     ethr =  1.61E-04,  avg # of iterations =  1.2

     total cpu time spent up to now is        3.8 secs

     total energy              =    -174.45784906 Ry
     Harris-Foulkes estimate   =    -174.45530566 Ry
     estimated scf accuracy    <       0.00700408 Ry

     total magnetization       =    -0.01 Bohr mag/cell
     absolute magnetization    =     7.32 Bohr mag/cell

     iteration #  6     ecut=    30.00 Ry     beta=0.30
     Davidson diagonalization with overlap
     ethr =  2.50E-05,  avg # of iterations =  1.9

     total cpu time spent up to now is        4.3 secs

     total energy              =    -174.46219048 Ry
     Harris-Foulkes estimate   =    -174.45836874 Ry
     estimated scf accuracy    <       0.00603113 Ry

     total magnetization       =     0.03 Bohr mag/cell
     absolute magnetization    =     7.32 Bohr mag/cell

     iteration #  7     ecut=    30.00 Ry     beta=0.30
     Davidson diagonalization with overlap
     ethr =  2.15E-05,  avg # of iterations =  1.0

     total cpu time spent up to now is        4.8 secs

     total energy              =    -174.46905141 Ry
     Harris-Foulkes estimate   =    -174.46748135 Ry
     estimated scf accuracy    <       0.02013499 Ry

     total magnetization       =    -0.21 Bohr mag/cell
     absolute magnetization    =     7.29 Bohr mag/cell

     iteration #  8     ecut=    30.00 Ry     beta=0.30
     Davidson diagonalization with overlap
     ethr =  2.15E-05,  avg # of iterations =  1.0

     total cpu time spent up to now is        5.3 secs

     total energy              =    -174.47065433 Ry
     Harris-Foulkes estimate   =    -174.47064426 Ry
     estimated scf accuracy    <       0.00523393 Ry

     total magnetization       =    -0.10 Bohr mag/cell
     absolute magnetization    =     7.27 Bohr mag/cell

     iteration #  9     ecut=    30.00 Ry     beta=0.30
     Davidson diagonalization with overlap
     ethr =  1.87E-05,  avg # of iterations =  1.0

     negative rho (up, down):  1.928E-04 2.121E-04

     total cpu time spent up to now is        5.8 secs

     total energy              =    -174.46787422 Ry
     Harris-Foulkes estimate   =    -174.47081204 Ry
     estimated scf accuracy    <       0.00045507 Ry

     total magnetization       =     0.00 Bohr mag/cell
     absolute magnetization    =     7.27 Bohr mag/cell

     iteration # 10     ecut=    30.00 Ry     beta=0.30
     Davidson diagonalization with overlap
     ethr =  1.63E-06,  avg # of iterations =  2.6

     total cpu time spent up to now is        6.3 secs

     total energy              =    -174.47109027 Ry
     Harris-Foulkes estimate   =    -174.47031279 Ry
     estimated scf accuracy    <       0.00169085 Ry

     total magnetization       =    -0.03 Bohr mag/cell
     absolute magnetization    =     7.23 Bohr mag/cell

     iteration # 11     ecut=    30.00 Ry     beta=0.30
     Davidson diagonalization with overlap
     ethr =  1.63E-06,  avg # of iterations =  1.0

     total cpu time spent up to now is        6.8 secs

     total energy              =    -174.47138024 Ry
     Harris-Foulkes estimate   =    -174.47127965 Ry
     estimated scf accuracy    <       0.00034748 Ry

     total magnetization       =    -0.01 Bohr mag/cell
     absolute magnetization    =     7.24 Bohr mag/cell

     iteration # 12     ecut=    30.00 Ry     beta=0.30
     Davidson diagonalization with overlap
     ethr =  1.24E-06,  avg # of iterations =  1.1

     total cpu time spent up to now is        7.3 secs

     total energy              =    -174.47149693 Ry
     Harris-Foulkes estimate   =    -174.47140040 Ry
     estimated scf accuracy    <       0.00017926 Ry

     total magnetization       =     0.01 Bohr mag/cell
     absolute magnetization    =     7.24 Bohr mag/cell

     iteration # 13     ecut=    30.00 Ry     beta=0.30
     Davidson diagonalization with overlap
     ethr =  6.40E-07,  avg # of iterations =  1.0

     total cpu time spent up to now is        7.8 secs

     total energy              =    -174.47154345 Ry
     Harris-Foulkes estimate   =    -174.47151847 Ry
     estimated scf accuracy    <       0.00004050 Ry

     total magnetization       =     0.00 Bohr mag/cell
     absolute magnetization    =     7.25 Bohr mag/cell

     iteration # 14     ecut=    30.00 Ry     beta=0.30
     Davidson diagonalization with overlap
     ethr =  1.45E-07,  avg # of iterations =  2.0

     total cpu time spent up to now is        8.3 secs

     total energy              =    -174.47155538 Ry
     Harris-Foulkes estimate   =    -174.47155832 Ry
     estimated scf accuracy    <       0.00000194 Ry

     total magnetization       =    -0.00 Bohr mag/cell
     absolute magnetization    =     7.25 Bohr mag/cell

     iteration # 15     ecut=    30.00 Ry     beta=0.30
     Davidson diagonalization with overlap
     ethr =  6.92E-09,  avg # of iterations =  4.0

     total cpu time spent up to now is        9.0 secs

     total energy              =    -174.47155996 Ry
     Harris-Foulkes estimate   =    -174.47155854 Ry
     estimated scf accuracy    <       0.00000217 Ry

     total magnetization       =    -0.00 Bohr mag/cell
     absolute magnetization    =     7.25 Bohr mag/cell

     iteration # 16     ecut=    30.00 Ry     beta=0.30
     Davidson diagonalization with overlap
     ethr =  6.92E-09,  avg # of iterations =  1.0
 
     Magnetic moment per site:
     atom:    1    charge:    5.8394    magn:    0.0001    constr:    0.0000
     atom:    2    charge:    5.8394    magn:    0.0001    constr:    0.0000
     atom:    3    charge:    5.6868    magn:    3.3444    constr:    0.0000
     atom:    4    charge:    5.6864    magn:   -3.3445    constr:    0.0000

     total cpu time spent up to now is        9.5 secs

     End of self-consistent calculation
 --- enter write_ns ---
 LDA+U parameters:
U( 2)     =  4.30000000
alpha( 2) =  0.00000000
U( 3)     =  4.30000000
alpha( 3) =  0.00000000
atom    3   Tr[ns(na)] (up, down, total) =   4.99113  1.84556  6.83669
   spin  1
    eigenvalues: 
  0.993  0.993  1.001  1.001  1.003
    eigenvectors:
  0.397  0.512  0.053  0.037  0.000
  0.058  0.002  0.535  0.071  0.333
  0.006  0.054  0.018  0.588  0.333
  0.512  0.397  0.037  0.053  0.000
  0.026  0.034  0.356  0.250  0.333
    occupations:
  0.994  0.001  0.001 -0.000  0.002
  0.001  1.001  0.001  0.002 -0.001
  0.001  0.001  1.001 -0.002 -0.001
 -0.000  0.002 -0.002  0.994 -0.000
  0.002 -0.001 -0.001 -0.000  1.001
   spin  2
    eigenvalues: 
  0.133  0.262  0.262  0.594  0.594
    eigenvectors:
  0.000  0.709  0.135  0.002  0.154
  0.333  0.067  0.036  0.469  0.094
  0.333  0.001  0.102  0.370  0.193
  0.000  0.135  0.709  0.154  0.002
  0.333  0.087  0.017  0.006  0.557
    occupations:
  0.314 -0.049 -0.049 -0.000 -0.098
 -0.049  0.406 -0.137 -0.085  0.137
 -0.049 -0.137  0.406  0.085  0.137
 -0.000 -0.085  0.085  0.314 -0.000
 -0.098  0.137  0.137 -0.000  0.406
atomic mag. moment =     3.145571
atom    4   Tr[ns(na)] (up, down, total) =   1.84524  4.99112  6.83636
   spin  1
    eigenvalues: 
  0.133  0.262  0.262  0.594  0.594
    eigenvectors:
  0.000  0.675  0.170  0.097  0.058
  0.333  0.072  0.031  0.481  0.082
  0.333  0.000  0.103  0.010  0.553
  0.000  0.170  0.675  0.058  0.097
  0.333  0.083  0.021  0.354  0.209
    occupations:
  0.313 -0.049 -0.049 -0.000 -0.098
 -0.049  0.406 -0.137 -0.085  0.137
 -0.049 -0.137  0.406  0.085  0.137
 -0.000 -0.085  0.085  0.313 -0.000
 -0.098  0.137  0.137 -0.000  0.406
   spin  2
    eigenvalues: 
  0.993  0.993  1.001  1.001  1.003
    eigenvectors:
  0.500  0.409  0.069  0.022  0.000
  0.055  0.006  0.449  0.158  0.333
  0.003  0.058  0.000  0.606  0.333
  0.409  0.500  0.022  0.069  0.000
  0.033  0.027  0.461  0.145  0.333
    occupations:
  0.994  0.001  0.001 -0.000  0.002
  0.001  1.001  0.001  0.002 -0.001
  0.001  0.001  1.001 -0.002 -0.001
 -0.000  0.002 -0.002  0.994 -0.000
  0.002 -0.001 -0.001 -0.000  1.001
atomic mag. moment =    -3.145878
N of occupied +U levels =   13.673049
 --- exit write_ns ---

 ------ SPIN UP ------------


          k = 0.0000 0.0000 0.0000 (   731 PWs)   bands (ev):

    -8.7971  -7.5700   1.9769   3.8693   3.8693   5.8100   5.8100   6.4569
     7.7596   7.7776   7.7776   8.5005   8.5005  10.5628  10.5628  11.5450
    12.6377  13.4459  13.4459  15.3607

          k =-0.7500 0.2500 0.2500 (   764 PWs)   bands (ev):

    -8.0957  -7.4195   2.6420   3.4855   3.9687   4.1075   5.5712   5.7119
     6.2465   6.3325   7.3171   8.6802   9.1425  10.3451  11.4523  12.9787
    13.2306  13.3157  17.3241  17.6724

          k =-0.5000-0.5000 0.5000 (   780 PWs)   bands (ev):

    -7.9363  -7.5705   1.9082   3.9462   4.0312   4.1614   5.2305   6.3240
     6.5885   6.5991   6.8767   8.6424   8.9516  10.5473  11.5331  12.9849
    13.5092  13.6755  15.3616  16.6740

          k =-0.2500-0.2500-0.2500 (   748 PWs)   bands (ev):

    -8.2808  -8.1995   3.1139   3.9935   3.9935   5.2645   5.8581   5.8581
     6.9311   6.9311   6.9527   9.4072   9.4072  10.4764  10.4764  12.2821
    13.1952  13.1952  14.0568  14.4192

 ------ SPIN DOWN ----------


          k = 0.0000 0.0000 0.0000 (   731 PWs)   bands (ev):

    -8.7970  -7.5699   1.9775   3.8706   3.8706   5.8124   5.8124   6.4581
     7.7597   7.7778   7.7778   8.5009   8.5009  10.5627  10.5627  11.5452
    12.6359  13.4444  13.4444  15.3609

          k =-0.7500 0.2500 0.2500 (   764 PWs)   bands (ev):

    -8.0955  -7.4194   2.6430   3.4865   3.9691   4.1088   5.5730   5.7118
     6.2466   6.3349   7.3188   8.6812   9.1435  10.3450  11.4520  12.9768
    13.2288  13.3139  17.3245  17.6725

          k =-0.5000-0.5000 0.5000 (   780 PWs)   bands (ev):

    -7.9362  -7.5704   1.9090   3.9474   4.0325   4.1615   5.2321   6.3264
     6.5886   6.5992   6.8786   8.6432   8.9523  10.5473  11.5328  12.9831
    13.5076  13.6738  15.3617  16.6742

          k =-0.2500-0.2500-0.2500 (   748 PWs)   bands (ev):

    -8.2806  -8.1994   3.1150   3.9950   3.9950   5.2644   5.8605   5.8605
     6.9309   6.9309   6.9537   9.4080   9.4080  10.4763  10.4763  12.2806
    13.1935  13.1935  14.0571  14.4190

     the Fermi energy is    10.5907 ev

!    total energy              =    -174.47156052 Ry
     Harris-Foulkes estimate   =    -174.47156042 Ry
     estimated scf accuracy    <       0.00000027 Ry

     The total energy is the sum of the following terms:

     one-electron contribution =       0.56850602 Ry
     hartree contribution      =      27.94078546 Ry
     xc contribution           =     -65.78125820 Ry
     ewald contribution        =    -137.50929535 Ry
     Hubbard energy            =       0.31374207 Ry
     smearing contrib. (-TS)   =      -0.00404053 Ry

     total magnetization       =    -0.00 Bohr mag/cell
     absolute magnetization    =     7.25 Bohr mag/cell

     convergence has been achieved in  16 iterations

     Forces acting on atoms (Ry/au):

     atom    1 type  1   force =    -0.00001705   -0.00001705   -0.00001705
     atom    2 type  1   force =     0.00001705    0.00001705    0.00001705
     atom    3 type  2   force =     0.00000000   -0.00000000   -0.00000000
     atom    4 type  3   force =     0.00000000    0.00000000    0.00000000

     Total force =     0.000042     Total SCF correction =     0.000627
     SCF correction compared to forces is large: reduce conv_thr to get better values


     entering subroutine stress ...

          total   stress  (Ry/bohr**3)                   (kbar)     P= -136.65
  -0.00092894  -0.00006695  -0.00006695       -136.65     -9.85     -9.85
  -0.00006695  -0.00092894  -0.00006695         -9.85   -136.65     -9.85
  -0.00006695  -0.00006695  -0.00092894         -9.85     -9.85   -136.65


     Writing output data file feo_af.save
 
     init_run     :      1.10s CPU      1.12s WALL (       1 calls)
     electrons    :      8.23s CPU      8.29s WALL (       1 calls)
     forces       :      0.17s CPU      0.17s WALL (       1 calls)
     stress       :      0.62s CPU      0.63s WALL (       1 calls)

     Called by init_run:
     wfcinit      :      0.12s CPU      0.12s WALL (       1 calls)
     potinit      :      0.04s CPU      0.04s WALL (       1 calls)

     Called by electrons:
     c_bands      :      4.30s CPU      4.33s WALL (      16 calls)
     sum_band     :      2.83s CPU      2.84s WALL (      16 calls)
     v_of_rho     :      0.30s CPU      0.30s WALL (      17 calls)
     newd         :      0.69s CPU      0.70s WALL (      17 calls)
     mix_rho      :      0.10s CPU      0.10s WALL (      16 calls)

     Called by c_bands:
     init_us_2    :      0.11s CPU      0.11s WALL (     368 calls)
     cegterg      :      4.01s CPU      4.04s WALL (     128 calls)

     Called by sum_band:
     sum_band:bec :      0.00s CPU      0.00s WALL (     128 calls)
     addusdens    :      1.72s CPU      1.72s WALL (      16 calls)

     Called by *egterg:
     h_psi        :      3.52s CPU      3.55s WALL (     366 calls)
     s_psi        :      0.10s CPU      0.10s WALL (     454 calls)
     g_psi        :      0.02s CPU      0.02s WALL (     230 calls)
     cdiaghg      :      0.28s CPU      0.28s WALL (     358 calls)

     Called by h_psi:
     h_psi:pot    :      3.46s CPU      3.49s WALL (     366 calls)
     h_psi:calbec :      0.08s CPU      0.08s WALL (     366 calls)
     add_vuspsi   :      0.07s CPU      0.07s WALL (     366 calls)
     vhpsi        :      0.05s CPU      0.05s WALL (     366 calls)

     General routines
     calbec       :      0.28s CPU      0.27s WALL (    2420 calls)
     fft          :      0.31s CPU      0.31s WALL (     289 calls)
     ffts         :      0.02s CPU      0.02s WALL (      66 calls)
     fftw         :      3.33s CPU      3.37s WALL (   14020 calls)
     interpolate  :      0.10s CPU      0.10s WALL (      66 calls)
     davcio       :      0.00s CPU      0.00s WALL (       8 calls)
 
     Parallel routines
     fft_scatter  :      0.65s CPU      0.67s WALL (   14375 calls)

     Hubbard U routines
     new_ns       :      0.02s CPU      0.02s WALL (      16 calls)
     vhpsi        :      0.05s CPU      0.05s WALL (     366 calls)
     force_hub    :      0.04s CPU      0.04s WALL (       1 calls)
     stres_hub    :      0.27s CPU      0.27s WALL (       1 calls)
 
     PWSCF        :    10.27s CPU        10.37s WALL

 
   This run was terminated on:  14:34:27  23Aug2016            

=------------------------------------------------------------------------------=
   JOB DONE.
=------------------------------------------------------------------------------=
