
     Program PWSCF v.5.4.0 (svn rev. 12782M) starts on 18Aug2016 at 16:14: 7 

     This program is part of the open-source Quantum ESPRESSO suite
     for quantum simulation of materials; please cite
         "P. Giannozzi et al., J. Phys.:Condens. Matter 21 395502 (2009);
          URL http://www.quantum-espresso.org", 
     in publications or presentations arising from this work. More details at
     http://www.quantum-espresso.org/quote
 
           HOST :    x86_64-pc-linux-gnu
           ARCH :    x86_64
             CC :    icc
            CPP :    cpp
            F90 :    ifort
            F77 :    ifort
         DFLAGS :    -D__INTEL -D__FFTW -D__MPI -D__PARA -D__HDF5
      BLAS LIBS :    -lmkl_intel_lp64  -lmkl_sequential -lmkl_core
    LAPACK LIBS :    
       FFT LIBS :    
      MASS LIBS :    

     Parallel version (MPI), running on     2 processors
     R & G space division:  proc/nbgrp/npool/nimage =       2
     Waiting for input...
     Reading input from standard input
     Message from routine read_cards :
     DEPRECATED: no units specified in CELL_PARAMETERS card

     Current dimensions of program PWSCF are:
     Max number of different atomic species (ntypx) = 10
     Max number of k-points (npk) =  40000
     Max angular momentum in pseudopotentials (lmaxx) =  3
               file O.pz-rrkjus.UPF: wavefunction(s)  2S renormalized
               file Fe.pz-nd-rrkjus.UPF: wavefunction(s)  4S renormalized
               file Fe.pz-nd-rrkjus.UPF: wavefunction(s)  4S renormalized

     Subspace diagonalization in iterative solution of the eigenvalue problem:
     a serial algorithm will be used

 
     Parallelization info
     --------------------
     sticks:   dense  smooth     PW     G-vecs:    dense   smooth      PW
     Min         530     269     81                 8627     3055     539
     Max         531     270     82                 8628     3056     542
     Sum        1061     539    163                17255     6111    1081
 


     bravais-lattice index     =            0
     lattice parameter (alat)  =       8.1900  a.u.
     unit-cell volume          =     274.6766 (a.u.)^3
     number of atoms/cell      =            4
     number of atomic types    =            3
     number of electrons       =        28.00
     number of Kohn-Sham states=           20
     kinetic-energy cutoff     =      30.0000  Ry
     charge density cutoff     =     240.0000  Ry
     convergence threshold     =      1.0E-06
     mixing beta               =       0.3000
     number of iterations used =            8  plain     mixing
     Exchange-correlation      =  SLA  PZ   NOGX NOGC ( 1  1  0  0 0 0)

     celldm(1)=   8.190000  celldm(2)=   0.000000  celldm(3)=   0.000000
     celldm(4)=   0.000000  celldm(5)=   0.000000  celldm(6)=   0.000000

     crystal axes: (cart. coord. in units of alat)
               a(1) = (   0.500000   0.500000   1.000000 )  
               a(2) = (   0.500000   1.000000   0.500000 )  
               a(3) = (   1.000000   0.500000   0.500000 )  

     reciprocal axes: (cart. coord. in units 2 pi/alat)
               b(1) = ( -0.500000 -0.500000  1.500000 )  
               b(2) = ( -0.500000  1.500000 -0.500000 )  
               b(3) = (  1.500000 -0.500000 -0.500000 )  


     PseudoPot. # 1 for O  read from file:
     /home/nvarini/espresso_hdf5/espresso/pseudo/O.pz-rrkjus.UPF
     MD5 check sum: 24fb942a68ef5d262e498166c462ef4a
     Pseudo is Ultrasoft, Zval =  6.0
     Generated by new atomic code, or converted to UPF format
     Using radial grid of 1269 points,  4 beta functions with: 
                l(1) =   0
                l(2) =   0
                l(3) =   1
                l(4) =   1
     Q(r) pseudized with 0 coefficients 


     PseudoPot. # 2 for Fe read from file:
     /home/nvarini/espresso_hdf5/espresso/pseudo/Fe.pz-nd-rrkjus.UPF
     MD5 check sum: 2e083728ad07023434bc1cc596eb954d
     Pseudo is Ultrasoft + core correction, Zval =  8.0
     Generated by new atomic code, or converted to UPF format
     Using radial grid of  957 points,  6 beta functions with: 
                l(1) =   0
                l(2) =   0
                l(3) =   1
                l(4) =   1
                l(5) =   2
                l(6) =   2
     Q(r) pseudized with 0 coefficients 


     PseudoPot. # 3 for Fe read from file:
     /home/nvarini/espresso_hdf5/espresso/pseudo/Fe.pz-nd-rrkjus.UPF
     MD5 check sum: 2e083728ad07023434bc1cc596eb954d
     Pseudo is Ultrasoft + core correction, Zval =  8.0
     Generated by new atomic code, or converted to UPF format
     Using radial grid of  957 points,  6 beta functions with: 
                l(1) =   0
                l(2) =   0
                l(3) =   1
                l(4) =   1
                l(5) =   2
                l(6) =   2
     Q(r) pseudized with 0 coefficients 


     atomic species   valence    mass     pseudopotential
        O1             6.00     1.00000     O ( 1.00)
        Fe1            8.00     1.00000     Fe( 1.00)
        Fe2            8.00     1.00000     Fe( 1.00)

     Starting magnetic structure 
     atomic species   magnetization
        O1           0.000
        Fe1          0.500
        Fe2         -0.500


     Simplified LDA+U calculation (l_max = 2) with parameters (eV):
     atomic species    L          U    alpha       J0     beta
        Fe1            2     4.3000   0.0000   0.0000   0.0000
        Fe2            2     4.3000   0.0000   0.0000   0.0000



     12 Sym. Ops., with inversion, found



   Cartesian axes

     site n.     atom                  positions (alat units)
         1           O1  tau(   1) = (   0.5000000   0.5000000   0.5000000  )
         2           O1  tau(   2) = (   1.5000000   1.5000000   1.5000000  )
         3           Fe1 tau(   3) = (   0.0000000   0.0000000   0.0000000  )
         4           Fe2 tau(   4) = (   1.0000000   1.0000000   1.0000000  )

     number of k points=     4  gaussian smearing, width (Ry)=  0.0100
                       cart. coord. in units 2pi/alat
        k(    1) = (   0.0000000   0.0000000   0.0000000), wk =   0.1250000
        k(    2) = (  -0.7500000   0.2500000   0.2500000), wk =   0.3750000
        k(    3) = (  -0.5000000  -0.5000000   0.5000000), wk =   0.3750000
        k(    4) = (  -0.2500000  -0.2500000  -0.2500000), wk =   0.1250000

     Dense  grid:    17255 G-vectors     FFT dimensions: (  50,  50,  50)

     Smooth grid:     6111 G-vectors     FFT dimensions: (  36,  36,  36)

     Estimated max dynamical RAM per process >      15.53Mb

     Estimated total allocated dynamical RAM >      31.07Mb
     Generating pointlists ...
     new r_m :   0.2063 (alat units)  1.6892 (a.u.) for type    1
     new r_m :   0.2063 (alat units)  1.6892 (a.u.) for type    2
     new r_m :   0.2063 (alat units)  1.6892 (a.u.) for type    3

     Check: negative/imaginary core charge=   -0.000003    0.000000

     Initial potential from superposition of free atoms

     starting charge   27.99905, renormalised to   28.00000
     Number of +U iterations with fixed ns =  0
     Starting occupations:
 --- enter write_ns ---
 LDA+U parameters:
U( 2)     =  4.30000000
alpha( 2) =  0.00000000
U( 3)     =  4.30000000
alpha( 3) =  0.00000000
atom    3   Tr[ns(na)] (up, down, total) =   5.00000  1.00000  6.00000
   spin  1
    eigenvalues: 
  1.000  1.000  1.000  1.000  1.000
    eigenvectors:
  1.000  0.000  0.000  0.000  0.000
  0.000  1.000  0.000  0.000  0.000
  0.000  0.000  1.000  0.000  0.000
  0.000  0.000  0.000  1.000  0.000
  0.000  0.000  0.000  0.000  1.000
    occupations:
  1.000  0.000  0.000  0.000  0.000
  0.000  1.000  0.000  0.000  0.000
  0.000  0.000  1.000  0.000  0.000
  0.000  0.000  0.000  1.000  0.000
  0.000  0.000  0.000  0.000  1.000
   spin  2
    eigenvalues: 
  0.200  0.200  0.200  0.200  0.200
    eigenvectors:
  1.000  0.000  0.000  0.000  0.000
  0.000  1.000  0.000  0.000  0.000
  0.000  0.000  1.000  0.000  0.000
  0.000  0.000  0.000  1.000  0.000
  0.000  0.000  0.000  0.000  1.000
    occupations:
  0.200  0.000  0.000  0.000  0.000
  0.000  0.200  0.000  0.000  0.000
  0.000  0.000  0.200  0.000  0.000
  0.000  0.000  0.000  0.200  0.000
  0.000  0.000  0.000  0.000  0.200
atomic mag. moment =     4.000000
atom    4   Tr[ns(na)] (up, down, total) =   1.00000  5.00000  6.00000
   spin  1
    eigenvalues: 
  0.200  0.200  0.200  0.200  0.200
    eigenvectors:
  1.000  0.000  0.000  0.000  0.000
  0.000  1.000  0.000  0.000  0.000
  0.000  0.000  1.000  0.000  0.000
  0.000  0.000  0.000  1.000  0.000
  0.000  0.000  0.000  0.000  1.000
    occupations:
  0.200  0.000  0.000  0.000  0.000
  0.000  0.200  0.000  0.000  0.000
  0.000  0.000  0.200  0.000  0.000
  0.000  0.000  0.000  0.200  0.000
  0.000  0.000  0.000  0.000  0.200
   spin  2
    eigenvalues: 
  1.000  1.000  1.000  1.000  1.000
    eigenvectors:
  1.000  0.000  0.000  0.000  0.000
  0.000  1.000  0.000  0.000  0.000
  0.000  0.000  1.000  0.000  0.000
  0.000  0.000  0.000  1.000  0.000
  0.000  0.000  0.000  0.000  1.000
    occupations:
  1.000  0.000  0.000  0.000  0.000
  0.000  1.000  0.000  0.000  0.000
  0.000  0.000  1.000  0.000  0.000
  0.000  0.000  0.000  1.000  0.000
  0.000  0.000  0.000  0.000  1.000
atomic mag. moment =    -4.000000
N of occupied +U levels =   12.000000
 --- exit write_ns ---
 Atomic wfc used for LDA+U Projector are NOT orthogonalized
     Starting wfc are   20 randomized atomic wfcs

     total cpu time spent up to now is        1.2 secs

     per-process dynamical memory:    44.4 Mb

     Self-consistent Calculation

     iteration #  1     ecut=    30.00 Ry     beta=0.30
     Davidson diagonalization with overlap
     ethr =  1.00E-02,  avg # of iterations =  2.5
 --- enter write_ns ---
 LDA+U parameters:
U( 2)     =  4.30000000
alpha( 2) =  0.00000000
U( 3)     =  4.30000000
alpha( 3) =  0.00000000
atom    3   Tr[ns(na)] (up, down, total) =   5.00240  1.12115  6.12355
   spin  1
    eigenvalues: 
  0.997  0.997  1.003  1.003  1.003
    eigenvectors:
  0.474  0.172  0.269  0.085  0.000
  0.181  0.055  0.318  0.112  0.333
  0.000  0.236  0.000  0.431  0.333
  0.172  0.474  0.085  0.269  0.000
  0.173  0.063  0.328  0.103  0.333
    occupations:
  0.999  0.001  0.001 -0.000  0.002
  0.001  1.001  0.001  0.002 -0.001
  0.001  0.001  1.001 -0.002 -0.001
 -0.000  0.002 -0.002  0.999 -0.000
  0.002 -0.001 -0.001 -0.000  1.001
   spin  2
    eigenvalues: 
  0.155  0.155  0.257  0.277  0.277
    eigenvectors:
  0.656  0.337  0.000  0.001  0.006
  0.004  0.001  0.333  0.658  0.004
  0.000  0.005  0.333  0.210  0.452
  0.337  0.656  0.000  0.006  0.001
  0.003  0.002  0.333  0.125  0.537
    occupations:
  0.156 -0.004 -0.004 -0.000 -0.009
 -0.004  0.270 -0.006 -0.007  0.006
 -0.004 -0.006  0.270  0.007  0.006
 -0.000 -0.007  0.007  0.156 -0.000
 -0.009  0.006  0.006 -0.000  0.270
atomic mag. moment =     3.881250
atom    4   Tr[ns(na)] (up, down, total) =   1.12093  5.00244  6.12337
   spin  1
    eigenvalues: 
  0.155  0.155  0.257  0.277  0.277
    eigenvectors:
  0.755  0.237  0.000  0.002  0.006
  0.004  0.001  0.333  0.661  0.001
  0.000  0.005  0.333  0.145  0.516
  0.237  0.755  0.000  0.006  0.002
  0.004  0.001  0.333  0.186  0.475
    occupations:
  0.156 -0.004 -0.004 -0.000 -0.009
 -0.004  0.269 -0.006 -0.007  0.006
 -0.004 -0.006  0.269  0.007  0.006
 -0.000 -0.007  0.007  0.156 -0.000
 -0.009  0.006  0.006 -0.000  0.269
   spin  2
    eigenvalues: 
  0.997  0.997  1.003  1.003  1.003
    eigenvectors:
  0.020  0.619  0.285  0.075  0.000
  0.213  0.028  0.301  0.125  0.333
  0.140  0.100  0.001  0.425  0.333
  0.619  0.020  0.075  0.285  0.000
  0.008  0.233  0.337  0.089  0.333
    occupations:
  0.999  0.001  0.001 -0.000  0.002
  0.001  1.001  0.001  0.002 -0.001
  0.001  0.001  1.001 -0.002 -0.001
 -0.000  0.002 -0.002  0.999 -0.000
  0.002 -0.001 -0.001 -0.000  1.001
atomic mag. moment =    -3.881511
N of occupied +U levels =   12.246912
 --- exit write_ns ---
 Modify starting ns matrices according to input values 
 --- enter write_ns ---
 LDA+U parameters:
U( 2)     =  4.30000000
alpha( 2) =  0.00000000
U( 3)     =  4.30000000
alpha( 3) =  0.00000000
atom    3   Tr[ns(na)] (up, down, total) =   5.00240  1.86412  6.86652
   spin  1
    eigenvalues: 
  0.997  0.997  1.003  1.003  1.003
    eigenvectors:
  0.259  0.388  0.276  0.077  0.000
  0.230  0.006  0.309  0.122  0.333
  0.030  0.206  0.001  0.430  0.333
  0.388  0.259  0.077  0.276  0.000
  0.094  0.142  0.337  0.094  0.333
    occupations:
  0.999  0.001  0.001 -0.000  0.002
  0.001  1.001  0.001  0.002 -0.001
  0.001  0.001  1.001 -0.002 -0.001
 -0.000  0.002 -0.002  0.999 -0.000
  0.002 -0.001 -0.001 -0.000  1.001
   spin  2
    eigenvalues: 
  0.155  0.155  0.277  0.277  1.000
    eigenvectors:
  0.754  0.238  0.001  0.006  0.000
  0.004  0.001  0.652  0.010  0.333
  0.000  0.005  0.239  0.423  0.333
  0.238  0.754  0.006  0.001  0.000
  0.004  0.001  0.102  0.560  0.333
    occupations:
  0.156 -0.004 -0.004 -0.000 -0.009
 -0.004  0.517  0.241 -0.007 -0.241
 -0.004  0.241  0.517  0.007 -0.241
 -0.000 -0.007  0.007  0.156 -0.000
 -0.009 -0.241 -0.241 -0.000  0.517
atomic mag. moment =     3.138275
atom    4   Tr[ns(na)] (up, down, total) =   1.86398  5.00244  6.86642
   spin  1
    eigenvalues: 
  0.155  0.155  0.277  0.277  1.000
    eigenvectors:
  0.366  0.627  0.007  0.001  0.000
  0.005  0.000  0.412  0.249  0.333
  0.001  0.004  0.012  0.649  0.333
  0.627  0.366  0.001  0.007  0.000
  0.002  0.003  0.568  0.094  0.333
    occupations:
  0.156 -0.004 -0.004 -0.000 -0.009
 -0.004  0.517  0.241 -0.007 -0.241
 -0.004  0.241  0.517  0.007 -0.241
 -0.000 -0.007  0.007  0.156 -0.000
 -0.009 -0.241 -0.241 -0.000  0.517
   spin  2
    eigenvalues: 
  0.997  0.997  1.003  1.003  1.003
    eigenvectors:
  0.320  0.320  0.310  0.050  0.000
  0.016  0.224  0.264  0.162  0.333
  0.224  0.016  0.008  0.418  0.333
  0.320  0.320  0.050  0.310  0.000
  0.120  0.120  0.367  0.060  0.333
    occupations:
  0.999  0.001  0.001 -0.000  0.002
  0.001  1.001  0.001  0.002 -0.001
  0.001  0.001  1.001 -0.002 -0.001
 -0.000  0.002 -0.002  0.999 -0.000
  0.002 -0.001 -0.001 -0.000  1.001
atomic mag. moment =    -3.138460
N of occupied +U levels =   13.732937
 --- exit write_ns ---

     total cpu time spent up to now is        1.8 secs

     total energy              =    -174.07188154 Ry
     Harris-Foulkes estimate   =    -174.93591927 Ry
     estimated scf accuracy    <       2.39752548 Ry

     total magnetization       =    -0.00 Bohr mag/cell
     absolute magnetization    =     8.54 Bohr mag/cell

     iteration #  2     ecut=    30.00 Ry     beta=0.30
     Davidson diagonalization with overlap
     ethr =  8.56E-03,  avg # of iterations =  2.2

     total cpu time spent up to now is        2.3 secs

     total energy              =    -174.49691856 Ry
     Harris-Foulkes estimate   =    -174.52599513 Ry
     estimated scf accuracy    <       0.26951089 Ry

     total magnetization       =    -0.00 Bohr mag/cell
     absolute magnetization    =     7.17 Bohr mag/cell

     iteration #  3     ecut=    30.00 Ry     beta=0.30
     Davidson diagonalization with overlap
     ethr =  9.63E-04,  avg # of iterations =  2.5

     total cpu time spent up to now is        2.8 secs

     total energy              =    -174.52698998 Ry
     Harris-Foulkes estimate   =    -174.51787199 Ry
     estimated scf accuracy    <       0.09639129 Ry

     total magnetization       =    -0.00 Bohr mag/cell
     absolute magnetization    =     7.33 Bohr mag/cell

     iteration #  4     ecut=    30.00 Ry     beta=0.30
     Davidson diagonalization with overlap
     ethr =  3.44E-04,  avg # of iterations =  2.0

     total cpu time spent up to now is        3.3 secs

     total energy              =    -174.53643650 Ry
     Harris-Foulkes estimate   =    -174.53602342 Ry
     estimated scf accuracy    <       0.00277042 Ry

     total magnetization       =     0.00 Bohr mag/cell
     absolute magnetization    =     7.34 Bohr mag/cell

     iteration #  5     ecut=    30.00 Ry     beta=0.30
     Davidson diagonalization with overlap
     ethr =  9.89E-06,  avg # of iterations =  3.0

     total cpu time spent up to now is        3.9 secs

     total energy              =    -174.53717984 Ry
     Harris-Foulkes estimate   =    -174.53702157 Ry
     estimated scf accuracy    <       0.00099963 Ry

     total magnetization       =     0.00 Bohr mag/cell
     absolute magnetization    =     7.32 Bohr mag/cell

     iteration #  6     ecut=    30.00 Ry     beta=0.30
     Davidson diagonalization with overlap
     ethr =  3.57E-06,  avg # of iterations =  2.0

     total cpu time spent up to now is        4.4 secs

     total energy              =    -174.53736184 Ry
     Harris-Foulkes estimate   =    -174.53736692 Ry
     estimated scf accuracy    <       0.00013516 Ry

     total magnetization       =    -0.00 Bohr mag/cell
     absolute magnetization    =     7.31 Bohr mag/cell

     iteration #  7     ecut=    30.00 Ry     beta=0.30
     Davidson diagonalization with overlap
     ethr =  4.83E-07,  avg # of iterations =  3.1

     total cpu time spent up to now is        5.0 secs

     total energy              =    -174.53740597 Ry
     Harris-Foulkes estimate   =    -174.53739541 Ry
     estimated scf accuracy    <       0.00001392 Ry

     total magnetization       =     0.00 Bohr mag/cell
     absolute magnetization    =     7.32 Bohr mag/cell

     iteration #  8     ecut=    30.00 Ry     beta=0.30
     Davidson diagonalization with overlap
     ethr =  4.97E-08,  avg # of iterations =  3.4

     total cpu time spent up to now is        5.6 secs

     total energy              =    -174.53741391 Ry
     Harris-Foulkes estimate   =    -174.53741036 Ry
     estimated scf accuracy    <       0.00000293 Ry

     total magnetization       =    -0.00 Bohr mag/cell
     absolute magnetization    =     7.32 Bohr mag/cell

     iteration #  9     ecut=    30.00 Ry     beta=0.30
     Davidson diagonalization with overlap
     ethr =  1.05E-08,  avg # of iterations =  1.9
 
     Magnetic moment per site:
     atom:    1    charge:    5.8529    magn:   -0.0000    constr:    0.0000
     atom:    2    charge:    5.8529    magn:   -0.0000    constr:    0.0000
     atom:    3    charge:    5.6869    magn:    3.3519    constr:    0.0000
     atom:    4    charge:    5.6869    magn:   -3.3519    constr:    0.0000

     total cpu time spent up to now is        6.1 secs

     End of self-consistent calculation
 --- enter write_ns ---
 LDA+U parameters:
U( 2)     =  4.30000000
alpha( 2) =  0.00000000
U( 3)     =  4.30000000
alpha( 3) =  0.00000000
atom    3   Tr[ns(na)] (up, down, total) =   4.99245  1.77352  6.76597
   spin  1
    eigenvalues: 
  0.994  0.994  1.001  1.001  1.002
    eigenvectors:
  0.441  0.468  0.060  0.031  0.000
  0.057  0.004  0.505  0.101  0.333
  0.005  0.056  0.006  0.600  0.333
  0.468  0.441  0.031  0.060  0.000
  0.029  0.031  0.398  0.208  0.333
    occupations:
  0.995  0.001  0.001 -0.000  0.002
  0.001  1.001  0.000  0.001 -0.000
  0.001  0.000  1.001 -0.001 -0.000
 -0.000  0.001 -0.001  0.995 -0.000
  0.002 -0.000 -0.000 -0.000  1.001
   spin  2
    eigenvalues: 
  0.102  0.102  0.293  0.293  0.984
    eigenvectors:
  0.005  0.003  0.659  0.332  0.000
  0.551  0.110  0.005  0.001  0.333
  0.007  0.654  0.000  0.006  0.333
  0.003  0.005  0.332  0.659  0.000
  0.433  0.228  0.004  0.002  0.333
    occupations:
  0.291  0.007  0.007 -0.000  0.014
  0.007  0.397  0.293  0.012 -0.293
  0.007  0.293  0.397 -0.012 -0.293
 -0.000  0.012 -0.012  0.291 -0.000
  0.014 -0.293 -0.293 -0.000  0.397
atomic mag. moment =     3.218937
atom    4   Tr[ns(na)] (up, down, total) =   1.77350  4.99245  6.76595
   spin  1
    eigenvalues: 
  0.102  0.102  0.293  0.293  0.984
    eigenvectors:
  0.005  0.004  0.783  0.208  0.000
  0.592  0.070  0.004  0.002  0.333
  0.024  0.637  0.000  0.006  0.333
  0.004  0.005  0.208  0.783  0.000
  0.376  0.285  0.004  0.001  0.333
    occupations:
  0.291  0.007  0.007 -0.000  0.014
  0.007  0.397  0.293  0.012 -0.293
  0.007  0.293  0.397 -0.012 -0.293
 -0.000  0.012 -0.012  0.291 -0.000
  0.014 -0.293 -0.293 -0.000  0.397
   spin  2
    eigenvalues: 
  0.994  0.994  1.001  1.001  1.002
    eigenvectors:
  0.390  0.520  0.066  0.025  0.000
  0.058  0.002  0.469  0.137  0.333
  0.006  0.054  0.000  0.606  0.333
  0.520  0.390  0.025  0.066  0.000
  0.026  0.035  0.440  0.166  0.333
    occupations:
  0.995  0.001  0.001 -0.000  0.002
  0.001  1.001  0.000  0.001 -0.000
  0.001  0.000  1.001 -0.001 -0.000
 -0.000  0.001 -0.001  0.995 -0.000
  0.002 -0.000 -0.000 -0.000  1.001
atomic mag. moment =    -3.218953
N of occupied +U levels =   13.531922
 --- exit write_ns ---

 ------ SPIN UP ------------


          k = 0.0000 0.0000 0.0000 (   731 PWs)   bands (ev):

    -8.7181  -7.4674   1.4538   3.6646   3.6646   5.4890   5.4890   6.8738
     7.8284   7.8808   7.8808   8.4604   8.4604   9.8927  11.5965  12.5867
    12.5867  13.4561  13.4561  15.5164

          k =-0.7500 0.2500 0.2500 (   764 PWs)   bands (ev):

    -8.0104  -7.3302   2.4599   3.6249   4.1632   4.2257   5.5887   5.6546
     6.2713   6.5401   7.3467   8.7896   9.2132   9.4796  12.5152  12.7506
    13.3340  13.6658  17.3709  17.6645

          k =-0.5000-0.5000 0.5000 (   780 PWs)   bands (ev):

    -7.8301  -7.4830   1.8599   4.1300   4.1641   4.2158   5.6544   5.6830
     6.6625   6.6855   7.2425   8.6740   8.8901   9.7827  12.5729  12.8535
    13.7807  13.8688  15.3276  16.7000

          k =-0.2500-0.2500-0.2500 (   748 PWs)   bands (ev):

    -8.2020  -8.1490   3.4509   3.7651   3.7651   4.2987   5.5348   5.5348
     6.9752   6.9752   7.8695   9.4393   9.4393   9.5145  12.5356  12.5356
    13.1789  13.1789  14.1108  14.3872

 ------ SPIN DOWN ----------


          k = 0.0000 0.0000 0.0000 (   731 PWs)   bands (ev):

    -8.7182  -7.4675   1.4539   3.6648   3.6648   5.4892   5.4892   6.8739
     7.8284   7.8807   7.8807   8.4605   8.4605   9.8926  11.5965  12.5864
    12.5864  13.4559  13.4559  15.5164

          k =-0.7500 0.2500 0.2500 (   764 PWs)   bands (ev):

    -8.0104  -7.3302   2.4600   3.6250   4.1633   4.2257   5.5886   5.6550
     6.2715   6.5401   7.3469   8.7898   9.2133   9.4794  12.5150  12.7504
    13.3338  13.6656  17.3709  17.6645

          k =-0.5000-0.5000 0.5000 (   780 PWs)   bands (ev):

    -7.8301  -7.4831   1.8600   4.1302   4.1642   4.2158   5.6547   5.6831
     6.6625   6.6855   7.2428   8.6740   8.8902   9.7826  12.5727  12.8533
    13.7805  13.8687  15.3276  16.7000

          k =-0.2500-0.2500-0.2500 (   748 PWs)   bands (ev):

    -8.2020  -8.1490   3.4510   3.7653   3.7653   4.2986   5.5350   5.5350
     6.9752   6.9752   7.8696   9.4393   9.4393   9.5143  12.5354  12.5354
    13.1787  13.1787  14.1108  14.3872

     the Fermi energy is    10.7842 ev

!    total energy              =    -174.53741676 Ry
     Harris-Foulkes estimate   =    -174.53741438 Ry
     estimated scf accuracy    <       0.00000032 Ry

     The total energy is the sum of the following terms:

     one-electron contribution =       0.54111522 Ry
     hartree contribution      =      28.08998753 Ry
     xc contribution           =     -65.85539479 Ry
     ewald contribution        =    -137.50929535 Ry
     Hubbard energy            =       0.19617063 Ry
     smearing contrib. (-TS)   =      -0.00000000 Ry

     total magnetization       =    -0.00 Bohr mag/cell
     absolute magnetization    =     7.32 Bohr mag/cell

     convergence has been achieved in   9 iterations

     Forces acting on atoms (Ry/au):

     atom    1 type  1   force =    -0.00001137   -0.00001137   -0.00001137
     atom    2 type  1   force =     0.00001137    0.00001137    0.00001137
     atom    3 type  2   force =     0.00000000    0.00000000   -0.00000000
     atom    4 type  3   force =     0.00000000    0.00000000    0.00000000

     Total force =     0.000028     Total SCF correction =     0.000027
     SCF correction compared to forces is large: reduce conv_thr to get better values


     entering subroutine stress ...

          total   stress  (Ry/bohr**3)                   (kbar)     P=  -86.69
  -0.00058929  -0.00024593  -0.00024593        -86.69    -36.18    -36.18
  -0.00024593  -0.00058929  -0.00024593        -36.18    -86.69    -36.18
  -0.00024593  -0.00024593  -0.00058929        -36.18    -36.18    -86.69


     Writing output data file feo_af.save
 
     init_run     :      1.09s CPU      1.12s WALL (       1 calls)
     electrons    :      4.84s CPU      4.95s WALL (       1 calls)
     forces       :      0.17s CPU      0.17s WALL (       1 calls)
     stress       :      0.63s CPU      0.63s WALL (       1 calls)

     Called by init_run:
     wfcinit      :      0.12s CPU      0.12s WALL (       1 calls)
     potinit      :      0.04s CPU      0.04s WALL (       1 calls)

     Called by electrons:
     c_bands      :      2.63s CPU      2.65s WALL (       9 calls)
     sum_band     :      1.60s CPU      1.60s WALL (       9 calls)
     v_of_rho     :      0.18s CPU      0.18s WALL (      10 calls)
     newd         :      0.40s CPU      0.41s WALL (      10 calls)
     mix_rho      :      0.05s CPU      0.05s WALL (       9 calls)

     Called by c_bands:
     init_us_2    :      0.08s CPU      0.08s WALL (     256 calls)
     cegterg      :      2.46s CPU      2.48s WALL (      72 calls)

     Called by sum_band:
     sum_band:bec :      0.00s CPU      0.00s WALL (      72 calls)
     addusdens    :      0.96s CPU      0.96s WALL (       9 calls)

     Called by *egterg:
     h_psi        :      2.15s CPU      2.17s WALL (     261 calls)
     s_psi        :      0.07s CPU      0.07s WALL (     349 calls)
     g_psi        :      0.01s CPU      0.01s WALL (     181 calls)
     cdiaghg      :      0.22s CPU      0.21s WALL (     253 calls)

     Called by h_psi:
     h_psi:pot    :      2.12s CPU      2.13s WALL (     261 calls)
     h_psi:calbec :      0.06s CPU      0.05s WALL (     261 calls)
     add_vuspsi   :      0.05s CPU      0.05s WALL (     261 calls)
     vhpsi        :      0.03s CPU      0.03s WALL (     261 calls)

     General routines
     calbec       :      0.23s CPU      0.21s WALL (    2098 calls)
     fft          :      0.20s CPU      0.20s WALL (     170 calls)
     ffts         :      0.01s CPU      0.01s WALL (      38 calls)
     fftw         :      2.02s CPU      2.02s WALL (    8404 calls)
     interpolate  :      0.06s CPU      0.06s WALL (      38 calls)
     davcio       :      0.00s CPU      0.00s WALL (       8 calls)
 
     Parallel routines
     fft_scatter  :      0.38s CPU      0.42s WALL (    8612 calls)

     Hubbard U routines
     new_ns       :      0.01s CPU      0.01s WALL (       9 calls)
     vhpsi        :      0.03s CPU      0.03s WALL (     261 calls)
     force_hub    :      0.04s CPU      0.04s WALL (       1 calls)
     stres_hub    :      0.27s CPU      0.27s WALL (       1 calls)
 
     PWSCF        :     6.88s CPU         7.04s WALL

 
   This run was terminated on:  16:14:14  18Aug2016            

=------------------------------------------------------------------------------=
   JOB DONE.
=------------------------------------------------------------------------------=
