<PP_INFO>
Generated using modified version of ld1 code for metaGGA
Author: Xiaofei Wang/Carlo Sbraccia   Generation date: 2005
Info: automatically converted from PWSCF format                                 
    0        The Pseudo was generated with a Non-Relativistic Calculation
nl pn  l   occ               Rcut            Rcut US             E pseu
2S  0  0  2.00      0.00000000000      0.00000000000      0.00000000000
2P  0  1  2.00      0.00000000000      0.00000000000      0.00000000000
</PP_INFO>


<PP_HEADER>
   0                   Version Number
   C                   Element
   NC                  Norm - Conserving pseudopotential
    F                  Nonlinear Core Correction
 SLA  PW   TPSS TPSS   META Exchange-Correlation functional
    4.00000000000      Z valence
    0.00000000000      Total energy
  0.0000000  0.0000000 Suggested cutoff for wfc and rho
    0                  Max angular momentum component
 1983                  Number of points in mesh
    2    1             Number of Wavefunctions, Number of Projectors
 Wavefunctions         nl  l   occ
                       2S  0  2.00
                       2P  1  2.00
</PP_HEADER>


<PP_MESH>
  <PP_R>
  4.13125362778E-04  4.15611566106E-04  4.18112731495E-04  4.20628948988E-04
  4.23160309168E-04  4.25706903165E-04  4.28268822657E-04  4.30846159873E-04
  4.33439007597E-04  4.36047459172E-04  4.38671608502E-04  4.41311550058E-04
  4.43967378877E-04  4.46639190570E-04  4.49327081322E-04  4.52031147898E-04
  4.54751487643E-04  4.57488198492E-04  4.60241378964E-04  4.63011128177E-04
  4.65797545839E-04  4.68600732264E-04  4.71420788366E-04  4.74257815667E-04
  4.77111916301E-04  4.79983193015E-04  4.82871749176E-04  4.85777688772E-04
  4.88701116417E-04  4.91642137355E-04  4.94600857463E-04  4.97577383256E-04
  5.00571821888E-04  5.03584281160E-04  5.06614869520E-04  5.09663696071E-04
  5.12730870569E-04  5.15816503434E-04  5.18920705749E-04  5.22043589265E-04
  5.25185266407E-04  5.28345850276E-04  5.31525454652E-04  5.34724194001E-04
  5.37942183480E-04  5.41179538935E-04  5.44436376912E-04  5.47712814658E-04
  5.51008970123E-04  5.54324961972E-04  5.57660909579E-04  5.61016933038E-04
  5.64393153168E-04  5.67789691513E-04  5.71206670347E-04  5.74644212684E-04
  5.78102442274E-04  5.81581483615E-04  5.85081461951E-04  5.88602503284E-04
  5.92144734370E-04  5.95708282731E-04  5.99293276654E-04  6.02899845200E-04
  6.06528118205E-04  6.10178226289E-04  6.13850300854E-04  6.17544474096E-04
  6.21260879006E-04  6.24999649375E-04  6.28760919799E-04  6.32544825683E-04
  6.36351503250E-04  6.40181089540E-04  6.44033722418E-04  6.47909540579E-04
  6.51808683554E-04  6.55731291712E-04  6.59677506268E-04  6.63647469284E-04
  6.67641323682E-04  6.71659213239E-04  6.75701282600E-04  6.79767677281E-04
  6.83858543671E-04  6.87974029043E-04  6.92114281554E-04  6.96279450254E-04
  7.00469685089E-04  7.04685136909E-04  7.08925957469E-04  7.13192299441E-04
  7.17484316412E-04  7.21802162897E-04  7.26145994337E-04  7.30515967111E-04
  7.34912238540E-04  7.39334966888E-04  7.43784311374E-04  7.48260432177E-04
  7.52763490435E-04  7.57293648261E-04  7.61851068740E-04  7.66435915939E-04
  7.71048354915E-04  7.75688551714E-04  7.80356673385E-04  7.85052887980E-04
  7.89777364564E-04  7.94530273219E-04  7.99311785049E-04  8.04122072190E-04
  8.08961307813E-04  8.13829666129E-04  8.18727322402E-04  8.23654452947E-04
  8.28611235141E-04  8.33597847428E-04  8.38614469329E-04  8.43661281441E-04
  8.48738465450E-04  8.53846204135E-04  8.58984681377E-04  8.64154082159E-04
  8.69354592582E-04  8.74586399864E-04  8.79849692350E-04  8.85144659521E-04
  8.90471491995E-04  8.95830381539E-04  9.01221521073E-04  9.06645104680E-04
  9.12101327608E-04  9.17590386283E-04  9.23112478310E-04  9.28667802487E-04
  9.34256558804E-04  9.39878948459E-04  9.45535173857E-04  9.51225438624E-04
  9.56949947609E-04  9.62708906896E-04  9.68502523807E-04  9.74331006914E-04
  9.80194566042E-04  9.86093412280E-04  9.92027757988E-04  9.97997816802E-04
  1.00400380365E-03  1.01004593473E-03  1.01612442759E-03  1.02223950103E-03
  1.02839137520E-03  1.03458027157E-03  1.04080641295E-03  1.04707002347E-03
  1.05337132862E-03  1.05971055525E-03  1.06608793158E-03  1.07250368719E-03
  1.07895805305E-03  1.08545126151E-03  1.09198354634E-03  1.09855514269E-03
  1.10516628715E-03  1.11181721771E-03  1.11850817381E-03  1.12523939633E-03
  1.13201112758E-03  1.13882361136E-03  1.14567709292E-03  1.15257181897E-03
  1.15950803773E-03  1.16648599891E-03  1.17350595370E-03  1.18056815484E-03
  1.18767285656E-03  1.19482031463E-03  1.20201078636E-03  1.20924453061E-03
  1.21652180780E-03  1.22384287990E-03  1.23120801047E-03  1.23861746467E-03
  1.24607150923E-03  1.25357041250E-03  1.26111444444E-03  1.26870387663E-03
  1.27633898230E-03  1.28402003632E-03  1.29174731519E-03  1.29952109711E-03
  1.30734166192E-03  1.31520929118E-03  1.32312426811E-03  1.33108687766E-03
  1.33909740648E-03  1.34715614295E-03  1.35526337719E-03  1.36341940106E-03
  1.37162450817E-03  1.37987899391E-03  1.38818315545E-03  1.39653729173E-03
  1.40494170350E-03  1.41339669333E-03  1.42190256558E-03  1.43045962649E-03
  1.43906818410E-03  1.44772854831E-03  1.45644103091E-03  1.46520594555E-03
  1.47402360775E-03  1.48289433497E-03  1.49181844654E-03  1.50079626374E-03
  1.50982810976E-03  1.51891430976E-03  1.52805519084E-03  1.53725108207E-03
  1.54650231451E-03  1.55580922120E-03  1.56517213718E-03  1.57459139954E-03
  1.58406734735E-03  1.59360032176E-03  1.60319066595E-03  1.61283872518E-03
  1.62254484678E-03  1.63230938016E-03  1.64213267686E-03  1.65201509052E-03
  1.66195697690E-03  1.67195869390E-03  1.68202060160E-03  1.69214306223E-03
  1.70232644019E-03  1.71257110208E-03  1.72287741672E-03  1.73324575513E-03
  1.74367649057E-03  1.75416999856E-03  1.76472665685E-03  1.77534684550E-03
  1.78603094683E-03  1.79677934546E-03  1.80759242834E-03  1.81847058474E-03
  1.82941420629E-03  1.84042368694E-03  1.85149942304E-03  1.86264181332E-03
  1.87385125891E-03  1.88512816335E-03  1.89647293260E-03  1.90788597508E-03
  1.91936770167E-03  1.93091852570E-03  1.94253886300E-03  1.95422913192E-03
  1.96598975329E-03  1.97782115051E-03  1.98972374950E-03  2.00169797876E-03
  2.01374426937E-03  2.02586305499E-03  2.03805477189E-03  2.05031985899E-03
  2.06265875782E-03  2.07507191259E-03  2.08755977018E-03  2.10012278014E-03
  2.11276139475E-03  2.12547606900E-03  2.13826726061E-03  2.15113543008E-03
  2.16408104066E-03  2.17710455838E-03  2.19020645211E-03  2.20338719350E-03
  2.21664725707E-03  2.22998712019E-03  2.24340726308E-03  2.25690816887E-03
  2.27049032360E-03  2.28415421623E-03  2.29790033865E-03  2.31172918574E-03
  2.32564125533E-03  2.33963704825E-03  2.35371706836E-03  2.36788182254E-03
  2.38213182072E-03  2.39646757590E-03  2.41088960418E-03  2.42539842474E-03
  2.43999455990E-03  2.45467853513E-03  2.46945087906E-03  2.48431212348E-03
  2.49926280341E-03  2.51430345707E-03  2.52943462593E-03  2.54465685470E-03
  2.55997069140E-03  2.57537668732E-03  2.59087539708E-03  2.60646737863E-03
  2.62215319328E-03  2.63793340574E-03  2.65380858409E-03  2.66977929982E-03
  2.68584612791E-03  2.70200964674E-03  2.71827043821E-03  2.73462908772E-03
  2.75108618416E-03  2.76764232000E-03  2.78429809127E-03  2.80105409757E-03
  2.81791094212E-03  2.83486923176E-03  2.85192957701E-03  2.86909259203E-03
  2.88635889469E-03  2.90372910658E-03  2.92120385304E-03  2.93878376315E-03
  2.95646946979E-03  2.97426160965E-03  2.99216082325E-03  3.01016775496E-03
  3.02828305304E-03  3.04650736964E-03  3.06484136083E-03  3.08328568664E-03
  3.10184101106E-03  3.12050800210E-03  3.13928733177E-03  3.15817967611E-03
  3.17718571527E-03  3.19630613345E-03  3.21554161900E-03  3.23489286440E-03
  3.25436056629E-03  3.27394542551E-03  3.29364814712E-03  3.31346944042E-03
  3.33341001898E-03  3.35347060065E-03  3.37365190763E-03  3.39395466645E-03
  3.41437960800E-03  3.43492746758E-03  3.45559898492E-03  3.47639490420E-03
  3.49731597407E-03  3.51836294770E-03  3.53953658277E-03  3.56083764154E-03
  3.58226689085E-03  3.60382510215E-03  3.62551305155E-03  3.64733151981E-03
  3.66928129240E-03  3.69136315951E-03  3.71357791609E-03  3.73592636188E-03
  3.75840930142E-03  3.78102754410E-03  3.80378190418E-03  3.82667320082E-03
  3.84970225811E-03  3.87286990510E-03  3.89617697582E-03  3.91962430933E-03
  3.94321274975E-03  3.96694314624E-03  3.99081635312E-03  4.01483322982E-03
  4.03899464095E-03  4.06330145632E-03  4.08775455098E-03  4.11235480525E-03
  4.13710310474E-03  4.16200034038E-03  4.18704740848E-03  4.21224521075E-03
  4.23759465430E-03  4.26309665171E-03  4.28875212106E-03  4.31456198595E-03
  4.34052717554E-03  4.36664862458E-03  4.39292727343E-03  4.41936406815E-03
  4.44595996045E-03  4.47271590778E-03  4.49963287338E-03  4.52671182624E-03
  4.55395374122E-03  4.58135959902E-03  4.60893038626E-03  4.63666709550E-03
  4.66457072525E-03  4.69264228005E-03  4.72088277048E-03  4.74929321320E-03
  4.77787463099E-03  4.80662805278E-03  4.83555451370E-03  4.86465505510E-03
  4.89393072462E-03  4.92338257616E-03  4.95301167001E-03  4.98281907282E-03
  5.01280585765E-03  5.04297310404E-03  5.07332189800E-03  5.10385333209E-03
  5.13456850546E-03  5.16546852385E-03  5.19655449966E-03  5.22782755199E-03
  5.25928880669E-03  5.29093939634E-03  5.32278046039E-03  5.35481314511E-03
  5.38703860368E-03  5.41945799622E-03  5.45207248984E-03  5.48488325865E-03
  5.51789148385E-03  5.55109835374E-03  5.58450506378E-03  5.61811281660E-03
  5.65192282208E-03  5.68593629740E-03  5.72015446704E-03  5.75457856286E-03
  5.78920982412E-03  5.82404949757E-03  5.85909883743E-03  5.89435910547E-03
  5.92983157109E-03  5.96551751128E-03  6.00141821074E-03  6.03753496191E-03
  6.07386906499E-03  6.11042182801E-03  6.14719456687E-03  6.18418860541E-03
  6.22140527540E-03  6.25884591665E-03  6.29651187704E-03  6.33440451253E-03
  6.37252518727E-03  6.41087527360E-03  6.44945615213E-03  6.48826921179E-03
  6.52731584983E-03  6.56659747195E-03  6.60611549229E-03  6.64587133350E-03
  6.68586642680E-03  6.72610221201E-03  6.76658013762E-03  6.80730166085E-03
  6.84826824768E-03  6.88948137290E-03  6.93094252020E-03  6.97265318217E-03
  7.01461486041E-03  7.05682906555E-03  7.09929731729E-03  7.14202114451E-03
  7.18500208525E-03  7.22824168685E-03  7.27174150593E-03  7.31550310849E-03
  7.35952806995E-03  7.40381797521E-03  7.44837441873E-03  7.49319900452E-03
  7.53829334629E-03  7.58365906744E-03  7.62929780113E-03  7.67521119036E-03
  7.72140088803E-03  7.76786855696E-03  7.81461587000E-03  7.86164451005E-03
  7.90895617016E-03  7.95655255354E-03  8.00443537367E-03  8.05260635434E-03
  8.10106722971E-03  8.14981974438E-03  8.19886565343E-03  8.24820672254E-03
  8.29784472798E-03  8.34778145672E-03  8.39801870650E-03  8.44855828586E-03
  8.49940201423E-03  8.55055172199E-03  8.60200925053E-03  8.65377645234E-03
  8.70585519103E-03  8.75824734145E-03  8.81095478973E-03  8.86397943332E-03
  8.91732318113E-03  8.97098795354E-03  9.02497568249E-03  9.07928831153E-03
  9.13392779594E-03  9.18889610273E-03  9.24419521077E-03  9.29982711084E-03
  9.35579380569E-03  9.41209731013E-03  9.46873965108E-03  9.52572286769E-03
  9.58304901135E-03  9.64072014581E-03  9.69873834723E-03  9.75710570428E-03
  9.81582431820E-03  9.87489630284E-03  9.93432378482E-03  9.99410890353E-03
  1.00542538112E-02  1.01147606732E-02  1.01756316676E-02  1.02368689858E-02
  1.02984748325E-02  1.03604514253E-02  1.04228009955E-02  1.04855257877E-02
  1.05486280599E-02  1.06121100839E-02  1.06759741450E-02  1.07402225423E-02
  1.08048575888E-02  1.08698816114E-02  1.09352969508E-02  1.10011059621E-02
  1.10673110144E-02  1.11339144911E-02  1.12009187900E-02  1.12683263231E-02
  1.13361395172E-02  1.14043608135E-02  1.14729926680E-02  1.15420375516E-02
  1.16114979497E-02  1.16813763630E-02  1.17516753071E-02  1.18223973128E-02
  1.18935449261E-02  1.19651207082E-02  1.20371272361E-02  1.21095671017E-02
  1.21824429132E-02  1.22557572938E-02  1.23295128831E-02  1.24037123362E-02
  1.24783583242E-02  1.25534535345E-02  1.26290006705E-02  1.27050024518E-02
  1.27814616147E-02  1.28583809115E-02  1.29357631114E-02  1.30136110002E-02
  1.30919273804E-02  1.31707150714E-02  1.32499769095E-02  1.33297157483E-02
  1.34099344583E-02  1.34906359273E-02  1.35718230607E-02  1.36534987812E-02
  1.37356660291E-02  1.38183277625E-02  1.39014869572E-02  1.39851466069E-02
  1.40693097234E-02  1.41539793366E-02  1.42391584946E-02  1.43248502638E-02
  1.44110577291E-02  1.44977839941E-02  1.45850321809E-02  1.46728054304E-02
  1.47611069025E-02  1.48499397760E-02  1.49393072490E-02  1.50292125386E-02
  1.51196588816E-02  1.52106495338E-02  1.53021877711E-02  1.53942768889E-02
  1.54869202022E-02  1.55801210463E-02  1.56738827765E-02  1.57682087682E-02
  1.58631024171E-02  1.59585671393E-02  1.60546063717E-02  1.61512235717E-02
  1.62484222175E-02  1.63462058082E-02  1.64445778641E-02  1.65435419266E-02
  1.66431015584E-02  1.67432603436E-02  1.68440218880E-02  1.69453898190E-02
  1.70473677859E-02  1.71499594599E-02  1.72531685342E-02  1.73569987245E-02
  1.74614537686E-02  1.75665374270E-02  1.76722534826E-02  1.77786057412E-02
  1.78855980315E-02  1.79932342053E-02  1.81015181375E-02  1.82104537263E-02
  1.83200448934E-02  1.84302955840E-02  1.85412097674E-02  1.86527914362E-02
  1.87650446076E-02  1.88779733226E-02  1.89915816467E-02  1.91058736698E-02
  1.92208535063E-02  1.93365252957E-02  1.94528932021E-02  1.95699614148E-02
  1.96877341481E-02  1.98062156421E-02  1.99254101619E-02  2.00453219986E-02
  2.01659554691E-02  2.02873149162E-02  2.04094047088E-02  2.05322292422E-02
  2.06557929381E-02  2.07801002447E-02  2.09051556372E-02  2.10309636175E-02
  2.11575287148E-02  2.12848554854E-02  2.14129485131E-02  2.15418124093E-02
  2.16714518131E-02  2.18018713914E-02  2.19330758395E-02  2.20650698807E-02
  2.21978582668E-02  2.23314457781E-02  2.24658372240E-02  2.26010374424E-02
  2.27370513006E-02  2.28738836950E-02  2.30115395518E-02  2.31500238265E-02
  2.32893415045E-02  2.34294976014E-02  2.35704971627E-02  2.37123452644E-02
  2.38550470131E-02  2.39986075461E-02  2.41430320316E-02  2.42883256688E-02
  2.44344936884E-02  2.45815413524E-02  2.47294739545E-02  2.48782968204E-02
  2.50280153076E-02  2.51786348061E-02  2.53301607381E-02  2.54825985587E-02
  2.56359537556E-02  2.57902318496E-02  2.59454383947E-02  2.61015789784E-02
  2.62586592217E-02  2.64166847797E-02  2.65756613411E-02  2.67355946292E-02
  2.68964904016E-02  2.70583544506E-02  2.72211926032E-02  2.73850107217E-02
  2.75498147036E-02  2.77156104818E-02  2.78824040249E-02  2.80502013376E-02
  2.82190084606E-02  2.83888314709E-02  2.85596764822E-02  2.87315496450E-02
  2.89044571466E-02  2.90784052119E-02  2.92534001028E-02  2.94294481194E-02
  2.96065555992E-02  2.97847289182E-02  2.99639744907E-02  3.01442987695E-02
  3.03257082463E-02  3.05082094519E-02  3.06918089564E-02  3.08765133692E-02
  3.10623293399E-02  3.12492635578E-02  3.14373227525E-02  3.16265136943E-02
  3.18168431940E-02  3.20083181035E-02  3.22009453158E-02  3.23947317657E-02
  3.25896844294E-02  3.27858103253E-02  3.29831165139E-02  3.31816100983E-02
  3.33812982242E-02  3.35821880804E-02  3.37842868991E-02  3.39876019557E-02
  3.41921405697E-02  3.43979101044E-02  3.46049179676E-02  3.48131716115E-02
  3.50226785335E-02  3.52334462756E-02  3.54454824256E-02  3.56587946168E-02
  3.58733905284E-02  3.60892778860E-02  3.63064644615E-02  3.65249580736E-02
  3.67447665882E-02  3.69658979183E-02  3.71883600247E-02  3.74121609162E-02
  3.76373086494E-02  3.78638113298E-02  3.80916771116E-02  3.83209141978E-02
  3.85515308411E-02  3.87835353436E-02  3.90169360576E-02  3.92517413855E-02
  3.94879597804E-02  3.97255997460E-02  3.99646698376E-02  4.02051786615E-02
  4.04471348763E-02  4.06905471922E-02  4.09354243723E-02  4.11817752321E-02
  4.14296086402E-02  4.16789335187E-02  4.19297588433E-02  4.21820936437E-02
  4.24359470041E-02  4.26913280632E-02  4.29482460147E-02  4.32067101076E-02
  4.34667296469E-02  4.37283139930E-02  4.39914725632E-02  4.42562148312E-02
  4.45225503276E-02  4.47904886407E-02  4.50600394163E-02  4.53312123581E-02
  4.56040172284E-02  4.58784638483E-02  4.61545620978E-02  4.64323219166E-02
  4.67117533040E-02  4.69928663195E-02  4.72756710833E-02  4.75601777764E-02
  4.78463966410E-02  4.81343379810E-02  4.84240121624E-02  4.87154296135E-02
  4.90086008253E-02  4.93035363520E-02  4.96002468114E-02  4.98987428850E-02
  5.01990353187E-02  5.05011349231E-02  5.08050525739E-02  5.11107992120E-02
  5.14183858444E-02  5.17278235442E-02  5.20391234513E-02  5.23522967725E-02
  5.26673547820E-02  5.29843088219E-02  5.33031703027E-02  5.36239507034E-02
  5.39466615721E-02  5.42713145264E-02  5.45979212539E-02  5.49264935125E-02
  5.52570431308E-02  5.55895820086E-02  5.59241221174E-02  5.62606755006E-02
  5.65992542742E-02  5.69398706270E-02  5.72825368214E-02  5.76272651932E-02
  5.79740681528E-02  5.83229581852E-02  5.86739478503E-02  5.90270497839E-02
  5.93822766977E-02  5.97396413798E-02  6.00991566955E-02  6.04608355873E-02
  6.08246910757E-02  6.11907362596E-02  6.15589843166E-02  6.19294485037E-02
  6.23021421576E-02  6.26770786953E-02  6.30542716147E-02  6.34337344946E-02
  6.38154809959E-02  6.41995248613E-02  6.45858799166E-02  6.49745600705E-02
  6.53655793156E-02  6.57589517286E-02  6.61546914710E-02  6.65528127894E-02
  6.69533300163E-02  6.73562575702E-02  6.77616099568E-02  6.81694017686E-02
  6.85796476862E-02  6.89923624785E-02  6.94075610034E-02  6.98252582079E-02
  7.02454691293E-02  7.06682088952E-02  7.10934927242E-02  7.15213359266E-02
  7.19517539048E-02  7.23847621540E-02  7.28203762624E-02  7.32586119122E-02
  7.36994848800E-02  7.41430110372E-02  7.45892063507E-02  7.50380868838E-02
  7.54896687961E-02  7.59439683446E-02  7.64010018842E-02  7.68607858681E-02
  7.73233368486E-02  7.77886714776E-02  7.82568065071E-02  7.87277587902E-02
  7.92015452810E-02  7.96781830361E-02  8.01576892143E-02  8.06400810780E-02
  8.11253759933E-02  8.16135914310E-02  8.21047449667E-02  8.25988542821E-02
  8.30959371652E-02  8.35960115110E-02  8.40990953223E-02  8.46052067100E-02
  8.51143638944E-02  8.56265852050E-02  8.61418890819E-02  8.66602940762E-02
  8.71818188504E-02  8.77064821795E-02  8.82343029514E-02  8.87653001678E-02
  8.92994929446E-02  8.98369005127E-02  9.03775422190E-02  9.09214375265E-02
  9.14686060157E-02  9.20190673845E-02  9.25728414497E-02  9.31299481471E-02
  9.36904075328E-02  9.42542397833E-02  9.48214651965E-02  9.53921041928E-02
  9.59661773151E-02  9.65437052301E-02  9.71247087290E-02  9.77092087279E-02
  9.82972262688E-02  9.88887825205E-02  9.94838987791E-02  1.00082596469E-01
  1.00684897143E-01  1.01290822484E-01  1.01900394305E-01  1.02513634552E-01
  1.03130565301E-01  1.03751208761E-01  1.04375587276E-01  1.05003723324E-01
  1.05635639516E-01  1.06271358604E-01  1.06910903471E-01  1.07554297143E-01
  1.08201562781E-01  1.08852723687E-01  1.09507803303E-01  1.10166825211E-01
  1.10829813137E-01  1.11496790948E-01  1.12167782656E-01  1.12842812416E-01
  1.13521904530E-01  1.14205083444E-01  1.14892373754E-01  1.15583800202E-01
  1.16279387679E-01  1.16979161226E-01  1.17683146036E-01  1.18391367452E-01
  1.19103850969E-01  1.19820622239E-01  1.20541707063E-01  1.21267131402E-01
  1.21996921371E-01  1.22731103243E-01  1.23469703447E-01  1.24212748574E-01
  1.24960265373E-01  1.25712280756E-01  1.26468821794E-01  1.27229915723E-01
  1.27995589943E-01  1.28765872018E-01  1.29540789678E-01  1.30320370821E-01
  1.31104643511E-01  1.31893635983E-01  1.32687376639E-01  1.33485894056E-01
  1.34289216979E-01  1.35097374328E-01  1.35910395198E-01  1.36728308856E-01
  1.37551144749E-01  1.38378932497E-01  1.39211701902E-01  1.40049482943E-01
  1.40892305781E-01  1.41740200757E-01  1.42593198395E-01  1.43451329404E-01
  1.44314624677E-01  1.45183115291E-01  1.46056832513E-01  1.46935807797E-01
  1.47820072786E-01  1.48709659314E-01  1.49604599405E-01  1.50504925278E-01
  1.51410669345E-01  1.52321864212E-01  1.53238542683E-01  1.54160737757E-01
  1.55088482635E-01  1.56021810715E-01  1.56960755597E-01  1.57905351084E-01
  1.58855631180E-01  1.59811630095E-01  1.60773382247E-01  1.61740922258E-01
  1.62714284960E-01  1.63693505393E-01  1.64678618810E-01  1.65669660676E-01
  1.66666666667E-01  1.67669672676E-01  1.68678714811E-01  1.69693829398E-01
  1.70715052982E-01  1.71742422326E-01  1.72775974415E-01  1.73815746458E-01
  1.74861775887E-01  1.75914100359E-01  1.76972757758E-01  1.78037786194E-01
  1.79109224011E-01  1.80187109778E-01  1.81271482301E-01  1.82362380618E-01
  1.83459843999E-01  1.84563911955E-01  1.85674624231E-01  1.86792020814E-01
  1.87916141930E-01  1.89047028047E-01  1.90184719878E-01  1.91329258379E-01
  1.92480684754E-01  1.93639040455E-01  1.94804367182E-01  1.95976706887E-01
  1.97156101775E-01  1.98342594303E-01  1.99536227187E-01  2.00737043396E-01
  2.01945086161E-01  2.03160398970E-01  2.04383025576E-01  2.05613009993E-01
  2.06850396500E-01  2.08095229644E-01  2.09347554239E-01  2.10607415368E-01
  2.11874858387E-01  2.13149928924E-01  2.14432672881E-01  2.15723136437E-01
  2.17021366050E-01  2.18327408456E-01  2.19641310671E-01  2.20963119998E-01
  2.22292884021E-01  2.23630650611E-01  2.24976467929E-01  2.26330384425E-01
  2.27692448838E-01  2.29062710205E-01  2.30441217853E-01  2.31828021411E-01
  2.33223170802E-01  2.34626716252E-01  2.36038708290E-01  2.37459197747E-01
  2.38888235760E-01  2.40325873776E-01  2.41772163549E-01  2.43227157146E-01
  2.44690906947E-01  2.46163465647E-01  2.47644886259E-01  2.49135222113E-01
  2.50634526862E-01  2.52142854481E-01  2.53660259270E-01  2.55186795856E-01
  2.56722519194E-01  2.58267484570E-01  2.59821747604E-01  2.61385364248E-01
  2.62958390794E-01  2.64540883871E-01  2.66132900448E-01  2.67734497838E-01
  2.69345733699E-01  2.70966666035E-01  2.72597353201E-01  2.74237853901E-01
  2.75888227193E-01  2.77548532491E-01  2.79218829566E-01  2.80899178550E-01
  2.82589639934E-01  2.84290274575E-01  2.86001143697E-01  2.87722308892E-01
  2.89453832120E-01  2.91195775718E-01  2.92948202395E-01  2.94711175239E-01
  2.96484757717E-01  2.98269013679E-01  3.00064007357E-01  3.01869803371E-01
  3.03686466732E-01  3.05514062838E-01  3.07352657483E-01  3.09202316857E-01
  3.11063107548E-01  3.12935096544E-01  3.14818351238E-01  3.16712939426E-01
  3.18618929314E-01  3.20536389518E-01  3.22465389067E-01  3.24405997405E-01
  3.26358284393E-01  3.28322320315E-01  3.30298175876E-01  3.32285922207E-01
  3.34285630867E-01  3.36297373846E-01  3.38321223567E-01  3.40357252888E-01
  3.42405535107E-01  3.44466143963E-01  3.46539153636E-01  3.48624638757E-01
  3.50722674403E-01  3.52833336102E-01  3.54956699840E-01  3.57092842057E-01
  3.59241839655E-01  3.61403769998E-01  3.63578710916E-01  3.65766740707E-01
  3.67967938140E-01  3.70182382459E-01  3.72410153383E-01  3.74651331113E-01
  3.76905996331E-01  3.79174230206E-01  3.81456114394E-01  3.83751731044E-01
  3.86061162797E-01  3.88384492794E-01  3.90721804674E-01  3.93073182582E-01
  3.95438711166E-01  3.97818475587E-01  4.00212561516E-01  4.02621055141E-01
  4.05044043167E-01  4.07481612822E-01  4.09933851859E-01  4.12400848560E-01
  4.14882691735E-01  4.17379470732E-01  4.19891275435E-01  4.22418196270E-01
  4.24960324205E-01  4.27517750757E-01  4.30090567995E-01  4.32678868540E-01
  4.35282745571E-01  4.37902292827E-01  4.40537604613E-01  4.43188775801E-01
  4.45855901833E-01  4.48539078725E-01  4.51238403072E-01  4.53953972051E-01
  4.56685883422E-01  4.59434235533E-01  4.62199127327E-01  4.64980658340E-01
  4.67778928706E-01  4.70594039164E-01  4.73426091059E-01  4.76275186344E-01
  4.79141427587E-01  4.82024917973E-01  4.84925761308E-01  4.87844062024E-01
  4.90779925178E-01  4.93733456462E-01  4.96704762204E-01  4.99693949371E-01
  5.02701125574E-01  5.05726399073E-01  5.08769878776E-01  5.11831674249E-01
  5.14911895719E-01  5.18010654072E-01  5.21128060864E-01  5.24264228323E-01
  5.27419269351E-01  5.30593297530E-01  5.33786427124E-01  5.36998773088E-01
  5.40230451066E-01  5.43481577398E-01  5.46752269125E-01  5.50042643993E-01
  5.53352820456E-01  5.56682917680E-01  5.60033055549E-01  5.63403354669E-01
  5.66793936371E-01  5.70204922715E-01  5.73636436498E-01  5.77088601255E-01
  5.80561541264E-01  5.84055381550E-01  5.87570247894E-01  5.91106266830E-01
  5.94663565656E-01  5.98242272434E-01  6.01842515999E-01  6.05464425959E-01
  6.09108132704E-01  6.12773767407E-01  6.16461462032E-01  6.20171349337E-01
  6.23903562877E-01  6.27658237012E-01  6.31435506912E-01  6.35235508559E-01
  6.39058378752E-01  6.42904255116E-01  6.46773276103E-01  6.50665580997E-01
  6.54581309923E-01  6.58520603846E-01  6.62483604582E-01  6.66470454800E-01
  6.70481298026E-01  6.74516278651E-01  6.78575541935E-01  6.82659234012E-01
  6.86767501895E-01  6.90900493482E-01  6.95058357561E-01  6.99241243817E-01
  7.03449302833E-01  7.07682686099E-01  7.11941546019E-01  7.16226035912E-01
  7.20536310019E-01  7.24872523510E-01  7.29234832492E-01  7.33623394005E-01
  7.38038366041E-01  7.42479907537E-01  7.46948178390E-01  7.51443339458E-01
  7.55965552567E-01  7.60514980518E-01  7.65091787091E-01  7.69696137050E-01
  7.74328196153E-01  7.78988131156E-01  7.83676109815E-01  7.88392300898E-01
  7.93136874190E-01  7.97910000494E-01  8.02711851645E-01  8.07542600509E-01
  8.12402420994E-01  8.17291488054E-01  8.22209977696E-01  8.27158066986E-01
  8.32135934056E-01  8.37143758109E-01  8.42181719427E-01  8.47249999379E-01
  8.52348780422E-01  8.57478246113E-01  8.62638581114E-01  8.67829971197E-01
  8.73052603252E-01  8.78306665296E-01  8.83592346474E-01  8.88909837072E-01
  8.94259328520E-01  8.99641013401E-01  9.05055085455E-01  9.10501739591E-01
  9.15981171887E-01  9.21493579604E-01  9.27039161190E-01  9.32618116285E-01
  9.38230645734E-01  9.43876951587E-01  9.49557237112E-01  9.55271706800E-01
  9.61020566373E-01  9.66804022790E-01  9.72622284257E-01  9.78475560230E-01
  9.84364061430E-01  9.90287999842E-01  9.96247588729E-01  1.00224304264E+00
  1.00827457740E+00  1.01434241016E+00  1.02044675936E+00  1.02658784475E+00
  1.03276588741E+00  1.03898110975E+00  1.04523373553E+00  1.05152398984E+00
  1.05785209912E+00  1.06421829119E+00  1.07062279524E+00  1.07706584182E+00
  1.08354766289E+00  1.09006849179E+00  1.09662856328E+00  1.10322811351E+00
  1.10986738007E+00  1.11654660198E+00  1.12326601969E+00  1.13002587509E+00
  1.13682641155E+00  1.14366787388E+00  1.15055050838E+00  1.15747456282E+00
  1.16444028647E+00  1.17144793010E+00  1.17849774598E+00  1.18558998790E+00
  1.19272491119E+00  1.19990277271E+00  1.20712383086E+00  1.21438834560E+00
  1.22169657844E+00  1.22904879250E+00  1.23644525245E+00  1.24388622455E+00
  1.25137197670E+00  1.25890277837E+00  1.26647890068E+00  1.27410061637E+00
  1.28176819981E+00  1.28948192705E+00  1.29724207578E+00  1.30504892536E+00
  1.31290275685E+00  1.32080385297E+00  1.32875249818E+00  1.33674897862E+00
  1.34479358217E+00  1.35288659843E+00  1.36102831876E+00  1.36921903625E+00
  1.37745904578E+00  1.38574864398E+00  1.39408812928E+00  1.40247780191E+00
  1.41091796388E+00  1.41940891906E+00  1.42795097311E+00  1.43654443355E+00
  1.44518960974E+00  1.45388681292E+00  1.46263635618E+00  1.47143855450E+00
  1.48029372478E+00  1.48920218578E+00  1.49816425823E+00  1.50718026475E+00
  1.51625052992E+00  1.52537538028E+00  1.53455514431E+00  1.54379015250E+00
  1.55308073730E+00  1.56242723317E+00  1.57182997659E+00  1.58128930606E+00
  1.59080556212E+00  1.60037908734E+00  1.61001022639E+00  1.61969932598E+00
  1.62944673492E+00  1.63925280412E+00  1.64911788660E+00  1.65904233750E+00
  1.66902651410E+00  1.67907077584E+00  1.68917548430E+00  1.69934100327E+00
  1.70956769869E+00  1.71985593874E+00  1.73020609379E+00  1.74061853644E+00
  1.75109364155E+00  1.76163178622E+00  1.77223334982E+00  1.78289871402E+00
  1.79362826276E+00  1.80442238231E+00  1.81528146127E+00  1.82620589055E+00
  1.83719606344E+00  1.84825237559E+00  1.85937522502E+00  1.87056501216E+00
  1.88182213985E+00  1.89314701333E+00  1.90454004032E+00  1.91600163094E+00
  1.92753219784E+00  1.93913215610E+00  1.95080192333E+00  1.96254191964E+00
  1.97435256767E+00  1.98623429260E+00  1.99818752219E+00  2.01021268674E+00
  2.02231021917E+00  2.03448055498E+00  2.04672413231E+00  2.05904139193E+00
  2.07143277726E+00  2.08389873440E+00  2.09643971212E+00  2.10905616189E+00
  2.12174853791E+00  2.13451729711E+00  2.14736289916E+00  2.16028580651E+00
  2.17328648438E+00  2.18636540080E+00  2.19952302661E+00  2.21275983549E+00
  2.22607630395E+00  2.23947291141E+00  2.25295014013E+00  2.26650847531E+00
  2.28014840503E+00  2.29387042034E+00  2.30767501523E+00  2.32156268667E+00
  2.33553393462E+00  2.34958926205E+00  2.36372917494E+00  2.37795418233E+00
  2.39226479634E+00  2.40666153213E+00  2.42114490800E+00  2.43571544535E+00
  2.45037366872E+00  2.46512010580E+00  2.47995528748E+00  2.49487974781E+00
  2.50989402408E+00  2.52499865681E+00  2.54019418977E+00  2.55548116998E+00
  2.57086014780E+00  2.58633167686E+00  2.60189631414E+00  2.61755461997E+00
  2.63330715804E+00  2.64915449546E+00  2.66509720273E+00  2.68113585378E+00
  2.69727102602E+00  2.71350330030E+00  2.72983326099E+00  2.74626149598E+00
  2.76278859668E+00  2.77941515806E+00  2.79614177869E+00  2.81296906073E+00
  2.82989760995E+00  2.84692803580E+00  2.86406095136E+00  2.88129697343E+00
  2.89863672250E+00  2.91608082280E+00  2.93362990233E+00  2.95128459285E+00
  2.96904552994E+00  2.98691335298E+00  3.00488870523E+00  3.02297223380E+00
  3.04116458969E+00  3.05946642784E+00  3.07787840711E+00  3.09640119033E+00
  3.11503544433E+00  3.13378183994E+00  3.15264105204E+00  3.17161375956E+00
  3.19070064551E+00  3.20990239704E+00  3.22921970539E+00  3.24865326601E+00