
     Program PHONON v.5.4.0 (svn rev. 12590M) starts on 21Jul2016 at 16:35:19 

     This program is part of the open-source Quantum ESPRESSO suite
     for quantum simulation of materials; please cite
         "P. Giannozzi et al., J. Phys.:Condens. Matter 21 395502 (2009);
          URL http://www.quantum-espresso.org", 
     in publications or presentations arising from this work. More details at
     http://www.quantum-espresso.org/quote
 
           HOST :    x86_64-pc-linux-gnu
           ARCH :    x86_64
             CC :    icc
            CPP :    cpp
            F90 :    gfortran
            F77 :    gfortran
         DFLAGS :    -D__GFORTRAN -D__STD_F95 -D__DFTI -D__MPI -D__PARA -D__HDF5
      BLAS LIBS :    -lmkl_gf_lp64  -lmkl_sequential -lmkl_core
    LAPACK LIBS :    
       FFT LIBS :    
      MASS LIBS :    

     Parallel version (MPI), running on     2 processors
     R & G space division:  proc/nbgrp/npool/nimage =       2

     Reading data from directory:
     /home/nvarini/espresso_hdf5/espresso/tempdir/_ph0/al.save

   Info: using nr1, nr2, nr3 values from input

   Info: using nr1, nr2, nr3 values from input

     IMPORTANT: XC functional enforced from input :
     Exchange-correlation      =  SLA  PZ   NOGX NOGC ( 1  1  0  0 0 0)
     Any further DFT definition will be discarded
     Please, verify this is what you really want

 
     Parallelization info
     --------------------
     sticks:   dense  smooth     PW     G-vecs:    dense   smooth      PW
     Min          60      60     30                  434      434     165
     Max          61      61     31                  435      435     166
     Sum         121     121     61                  869      869     331
 
       17 /  17 q-points for this run, from  1 to 17:
       N       xq(1)         xq(2)         xq(3) 
       1   0.000000000   0.000000000   0.000000000
       2   0.250000000   0.000000000   0.000000000
       3   0.500000000   0.000000000   0.000000000
       4   0.750000000   0.000000000   0.000000000
       5   1.000000000   0.000000000   0.000000000
       6   1.000000000   0.250000000   0.000000000
       7   1.000000000   0.500000000   0.000000000
       8   1.000000000   0.750000000   0.000000000
       9   1.000000000   1.000000000   0.000000000
      10   0.750000000   0.750000000   0.000000000
      11   0.500000000   0.500000000   0.000000000
      12   0.250000000   0.250000000   0.000000000
      13   0.000000000   0.000000000   0.000000000
      14   0.125000000   0.125000000   0.125000000
      15   0.250000000   0.250000000   0.250000000
      16   0.375000000   0.375000000   0.375000000
      17   0.500000000   0.500000000   0.500000000
 

     Calculation of q =    0.0000000   0.0000000   0.0000000

                                                                                

     bravais-lattice index     =            2
     lattice parameter (alat)  =       7.5000  a.u.
     unit-cell volume          =     105.4688 (a.u.)^3
     number of atoms/cell      =            1
     number of atomic types    =            1
     kinetic-energy cut-off    =      15.0000  Ry
     charge density cut-off    =      60.0000  Ry
     convergence threshold     =      1.0E-10
     beta                      =       0.7000
     number of iterations used =            4
     Exchange-correlation      =  SLA  PZ   NOGX NOGC ( 1  1  0  0 0 0)


     celldm(1)=    7.50000  celldm(2)=    0.00000  celldm(3)=    0.00000
     celldm(4)=    0.00000  celldm(5)=    0.00000  celldm(6)=    0.00000

     crystal axes: (cart. coord. in units of alat)
               a(1) = ( -0.5000  0.0000  0.5000 )  
               a(2) = (  0.0000  0.5000  0.5000 )  
               a(3) = ( -0.5000  0.5000  0.0000 )  

     reciprocal axes: (cart. coord. in units 2 pi/alat)
               b(1) = ( -1.0000 -1.0000  1.0000 )  
               b(2) = (  1.0000  1.0000  1.0000 )  
               b(3) = ( -1.0000  1.0000 -1.0000 )  


     Atoms inside the unit cell: 

     Cartesian axes

     site n.  atom      mass           positions (alat units)
        1     Al  26.9800   tau(    1) = (    0.00000    0.00000    0.00000  )

     Computing dynamical matrix for 
                    q = (   0.0000000   0.0000000   0.0000000 )
 
     49 Sym.Ops. (with q -> -q+G )


     G cutoff =   85.4897  (    435 G-vectors)     FFT grid: ( 15, 15, 15)

     number of k points=   328  Methfessel-Paxton smearing, width (Ry)=  0.0500

     PseudoPot. # 1 for Al read from file:
     /home/nvarini/espresso_hdf5/espresso/pseudo/Al.pz-vbc.UPF
     MD5 check sum: 614279c88ff8d45c90147292d03ed420
     Pseudo is Norm-conserving, Zval =  3.0
     Generated by new atomic code, or converted to UPF format
     Using radial grid of  171 points,  2 beta functions with: 
                l(1) =   0
                l(2) =   1

     Mode symmetry, O_h (m-3m)  point group:


     Atomic displacements:
     There are   1 irreducible representations

     Representation     1      3 modes -T_1u G_15  G_4-  Done


     PHONON       :     2.09s CPU         2.10s WALL

 
     Number of q in the star =    1
     List of q in the star:
          1   0.000000000   0.000000000   0.000000000

     Diagonalizing the dynamical matrix

     q = (    0.000000000   0.000000000   0.000000000 ) 

 **************************************************************************
     freq (    1) =       0.187691 [THz] =       6.260705 [cm-1]
     freq (    2) =       0.187691 [THz] =       6.260705 [cm-1]
     freq (    3) =       0.187691 [THz] =       6.260705 [cm-1]
 **************************************************************************

     Mode symmetry, O_h (m-3m)  point group:

     freq (  1 -  3) =          6.3  [cm-1]   --> T_1u G_15  G_4- I  

     Calculation of q =    0.2500000   0.0000000   0.0000000
 
     Parallelization info
     --------------------
     sticks:   dense  smooth     PW     G-vecs:    dense   smooth      PW
     Min          60      60     27                  434      434     129
     Max          61      61     28                  435      435     130
     Sum         121     121     55                  869      869     259
 


     bravais-lattice index     =            2
     lattice parameter (alat)  =       7.5000  a.u.
     unit-cell volume          =     105.4688 (a.u.)^3
     number of atoms/cell      =            1
     number of atomic types    =            1
     number of electrons       =         3.00
     number of Kohn-Sham states=            6
     kinetic-energy cutoff     =      15.0000  Ry
     charge density cutoff     =      60.0000  Ry
     Exchange-correlation      =  SLA  PZ   NOGX NOGC ( 1  1  0  0 0 0)

     celldm(1)=   7.500000  celldm(2)=   0.000000  celldm(3)=   0.000000
     celldm(4)=   0.000000  celldm(5)=   0.000000  celldm(6)=   0.000000

     crystal axes: (cart. coord. in units of alat)
               a(1) = (  -0.500000   0.000000   0.500000 )  
               a(2) = (   0.000000   0.500000   0.500000 )  
               a(3) = (  -0.500000   0.500000   0.000000 )  

     reciprocal axes: (cart. coord. in units 2 pi/alat)
               b(1) = ( -1.000000 -1.000000  1.000000 )  
               b(2) = (  1.000000  1.000000  1.000000 )  
               b(3) = ( -1.000000  1.000000 -1.000000 )  


     PseudoPot. # 1 for Al read from file:
     /home/nvarini/espresso_hdf5/espresso/pseudo/Al.pz-vbc.UPF
     MD5 check sum: 614279c88ff8d45c90147292d03ed420
     Pseudo is Norm-conserving, Zval =  3.0
     Generated by new atomic code, or converted to UPF format
     Using radial grid of  171 points,  2 beta functions with: 
                l(1) =   0
                l(2) =   1

     atomic species   valence    mass     pseudopotential
        Al             3.00    26.98000     Al( 1.00)

     48 Sym. Ops., with inversion, found



   Cartesian axes

     site n.     atom                  positions (alat units)
         1           Al  tau(   1) = (   0.0000000   0.0000000   0.0000000  )

     number of k points=   200  Methfessel-Paxton smearing, width (Ry)=  0.0500

     Number of k-points >= 100: set verbosity='high' to print them.

     Dense  grid:      869 G-vectors     FFT dimensions: (  15,  15,  15)

     Largest allocated arrays     est. size (Mb)     dimensions
        Kohn-Sham Wavefunctions         0.01 Mb     (      66,    6)
        NL pseudopotentials             0.00 Mb     (      66,    4)
        Each V/rho on FFT grid          0.03 Mb     (    1800)
        Each G-vector array             0.00 Mb     (     435)
        G-vector shells                 0.00 Mb     (      31)
     Largest temporary arrays     est. size (Mb)     dimensions
        Auxiliary wavefunctions         0.02 Mb     (      66,   24)
        Each subspace H/S matrix        0.01 Mb     (      24,   24)
        Each <psi_i|beta_j> matrix      0.00 Mb     (       4,    6)

     The potential is recalculated from file :
     /home/nvarini/espresso_hdf5/espresso/tempdir/_ph0/al.save/charge-density.hdf5

     Starting wfc are    4 atomic +    2 random wfc

Possibly too few bands at point    1   0.00000   0.00000   0.00000

Possibly too few bands at point    2   0.25000   0.00000   0.00000

Possibly too few bands at point    3  -0.12500   0.12500  -0.12500

Possibly too few bands at point    4   0.12500   0.12500  -0.12500

Possibly too few bands at point    5  -0.25000   0.25000  -0.25000

Possibly too few bands at point    6   0.00000   0.25000  -0.25000

Possibly too few bands at point    7  -0.37500   0.37500  -0.37500

Possibly too few bands at point    8  -0.12500   0.37500  -0.37500

Possibly too few bands at point    9   0.50000  -0.50000   0.50000

Possibly too few bands at point   10   0.75000  -0.50000   0.50000

Possibly too few bands at point   11   0.00000   0.25000   0.00000

Possibly too few bands at point   12   0.25000   0.25000   0.00000

Possibly too few bands at point   13  -0.12500   0.37500  -0.12500

Possibly too few bands at point   14   0.12500   0.37500  -0.12500

Possibly too few bands at point   15  -0.25000   0.50000  -0.25000

Possibly too few bands at point   16   0.00000   0.50000  -0.25000

Possibly too few bands at point   17   0.62500  -0.37500   0.62500

Possibly too few bands at point   18   0.87500  -0.37500   0.62500

Possibly too few bands at point   19   0.50000  -0.25000   0.50000

Possibly too few bands at point   20   0.75000  -0.25000   0.50000

Possibly too few bands at point   21   0.37500  -0.12500   0.37500

Possibly too few bands at point   22   0.62500  -0.12500   0.37500

Possibly too few bands at point   23   0.25000   0.00000   0.25000

Possibly too few bands at point   24   0.50000   0.00000   0.25000

Possibly too few bands at point   25   0.00000   0.50000   0.00000

Possibly too few bands at point   26   0.25000   0.50000   0.00000

Possibly too few bands at point   27  -0.12500   0.62500  -0.12500

Possibly too few bands at point   28   0.12500   0.62500  -0.12500

Possibly too few bands at point   29   0.75000  -0.25000   0.75000

Possibly too few bands at point   30   1.00000  -0.25000   0.75000

Possibly too few bands at point   31   0.62500  -0.12500   0.62500

Possibly too few bands at point   32   0.87500  -0.12500   0.62500

Possibly too few bands at point   33   0.50000   0.00000   0.50000

Possibly too few bands at point   34   0.75000   0.00000   0.50000

Possibly too few bands at point   35   0.00000   0.75000   0.00000

Possibly too few bands at point   36   0.25000   0.75000   0.00000

Possibly too few bands at point   37   0.87500  -0.12500   0.87500

Possibly too few bands at point   38   1.12500  -0.12500   0.87500

Possibly too few bands at point   39   0.75000   0.00000   0.75000

Possibly too few bands at point   40   1.00000   0.00000   0.75000

Possibly too few bands at point   41   0.00000  -1.00000   0.00000

Possibly too few bands at point   42   0.25000  -1.00000   0.00000

Possibly too few bands at point   43  -0.25000   0.50000   0.00000

Possibly too few bands at point   44   0.00000   0.50000   0.00000

Possibly too few bands at point   45   0.62500  -0.37500   0.87500

Possibly too few bands at point   46   0.87500  -0.37500   0.87500

Possibly too few bands at point   47   0.50000  -0.25000   0.75000

Possibly too few bands at point   48   0.75000  -0.25000   0.75000

Possibly too few bands at point   49   0.75000  -0.25000   1.00000

Possibly too few bands at point   50   1.00000  -0.25000   1.00000

Possibly too few bands at point   51   0.62500  -0.12500   0.87500

Possibly too few bands at point   52   0.87500  -0.12500   0.87500

Possibly too few bands at point   53   0.50000   0.00000   0.75000

Possibly too few bands at point   54   0.75000   0.00000   0.75000

Possibly too few bands at point   55  -0.25000  -1.00000   0.00000

Possibly too few bands at point   56   0.00000  -1.00000   0.00000

Possibly too few bands at point   57  -0.50000  -1.00000   0.00000

Possibly too few bands at point   58  -0.25000  -1.00000   0.00000

Possibly too few bands at point   59   0.12500  -0.12500  -0.12500

Possibly too few bands at point   60   0.37500  -0.12500  -0.12500

Possibly too few bands at point   61   0.25000  -0.25000  -0.25000

Possibly too few bands at point   62   0.50000  -0.25000  -0.25000

Possibly too few bands at point   63   0.37500  -0.37500  -0.37500

Possibly too few bands at point   64   0.62500  -0.37500  -0.37500

Possibly too few bands at point   65   0.25000   0.00000   0.00000

Possibly too few bands at point   66   0.50000   0.00000   0.00000

Possibly too few bands at point   67  -0.25000   0.00000   0.00000

Possibly too few bands at point   68   0.00000   0.00000   0.00000

Possibly too few bands at point   69   0.37500  -0.12500  -0.12500

Possibly too few bands at point   70   0.62500  -0.12500  -0.12500

Possibly too few bands at point   71   0.12500   0.37500  -0.12500

Possibly too few bands at point   72   0.37500   0.37500  -0.12500

Possibly too few bands at point   73  -0.37500   0.12500   0.12500

Possibly too few bands at point   74  -0.12500   0.12500   0.12500

Possibly too few bands at point   75   0.50000  -0.25000  -0.25000

Possibly too few bands at point   76   0.75000  -0.25000  -0.25000

Possibly too few bands at point   77   0.25000   0.50000  -0.25000

Possibly too few bands at point   78   0.50000   0.50000  -0.25000

Possibly too few bands at point   79  -0.50000   0.25000   0.25000

Possibly too few bands at point   80  -0.25000   0.25000   0.25000

Possibly too few bands at point   81  -0.37500   0.62500   0.62500

Possibly too few bands at point   82  -0.12500   0.62500   0.62500

Possibly too few bands at point   83  -0.62500  -0.37500   0.62500

Possibly too few bands at point   84  -0.37500  -0.37500   0.62500

Possibly too few bands at point   85   0.37500  -0.62500  -0.62500

Possibly too few bands at point   86   0.62500  -0.62500  -0.62500

Possibly too few bands at point   87  -0.25000   0.50000   0.50000

Possibly too few bands at point   88   0.00000   0.50000   0.50000

Possibly too few bands at point   89  -0.50000  -0.25000   0.50000

Possibly too few bands at point   90  -0.25000  -0.25000   0.50000

Possibly too few bands at point   91   0.25000  -0.50000  -0.50000

Possibly too few bands at point   92   0.50000  -0.50000  -0.50000

Possibly too few bands at point   93  -0.12500   0.37500   0.37500

Possibly too few bands at point   94   0.12500   0.37500   0.37500

Possibly too few bands at point   95  -0.37500  -0.12500   0.37500

Possibly too few bands at point   96  -0.12500  -0.12500   0.37500

Possibly too few bands at point   97   0.12500  -0.37500  -0.37500

Possibly too few bands at point   98   0.37500  -0.37500  -0.37500

Possibly too few bands at point   99   0.00000   0.25000   0.25000

Possibly too few bands at point  100   0.25000   0.25000   0.25000

Possibly too few bands at point  101  -0.25000   0.00000   0.25000

Possibly too few bands at point  102   0.00000   0.00000   0.25000

Possibly too few bands at point  103   0.50000   0.00000   0.00000

Possibly too few bands at point  104   0.75000   0.00000   0.00000

Possibly too few bands at point  105  -0.50000   0.00000   0.00000

Possibly too few bands at point  106  -0.25000   0.00000   0.00000

Possibly too few bands at point  107   0.62500  -0.12500  -0.12500

Possibly too few bands at point  108   0.87500  -0.12500  -0.12500

Possibly too few bands at point  109   0.12500   0.62500  -0.12500

Possibly too few bands at point  110   0.37500   0.62500  -0.12500

Possibly too few bands at point  111  -0.62500   0.12500   0.12500

Possibly too few bands at point  112  -0.37500   0.12500   0.12500

Possibly too few bands at point  113  -0.25000   0.75000   0.75000

Possibly too few bands at point  114   0.00000   0.75000   0.75000

Possibly too few bands at point  115  -0.75000  -0.25000   0.75000

Possibly too few bands at point  116  -0.50000  -0.25000   0.75000

Possibly too few bands at point  117   0.25000  -0.75000  -0.75000

Possibly too few bands at point  118   0.50000  -0.75000  -0.75000

Possibly too few bands at point  119  -0.12500   0.62500   0.62500

Possibly too few bands at point  120   0.12500   0.62500   0.62500

Possibly too few bands at point  121  -0.62500  -0.12500   0.62500

Possibly too few bands at point  122  -0.37500  -0.12500   0.62500

Possibly too few bands at point  123   0.12500  -0.62500  -0.62500

Possibly too few bands at point  124   0.37500  -0.62500  -0.62500

Possibly too few bands at point  125   0.00000   0.50000   0.50000

Possibly too few bands at point  126   0.25000   0.50000   0.50000

Possibly too few bands at point  127  -0.50000   0.00000   0.50000

Possibly too few bands at point  128  -0.25000   0.00000   0.50000

Possibly too few bands at point  129   0.75000   0.00000   0.00000

Possibly too few bands at point  130   1.00000   0.00000   0.00000

Possibly too few bands at point  131  -0.75000   0.00000   0.00000

Possibly too few bands at point  132  -0.50000   0.00000   0.00000

Possibly too few bands at point  133  -0.12500   0.87500   0.87500

Possibly too few bands at point  134   0.12500   0.87500   0.87500

Possibly too few bands at point  135  -0.87500  -0.12500   0.87500

Possibly too few bands at point  136  -0.62500  -0.12500   0.87500

Possibly too few bands at point  137   0.12500  -0.87500  -0.87500

Possibly too few bands at point  138   0.37500  -0.87500  -0.87500

Possibly too few bands at point  139   0.00000   0.75000   0.75000

Possibly too few bands at point  140   0.25000   0.75000   0.75000

Possibly too few bands at point  141  -0.75000   0.00000   0.75000

Possibly too few bands at point  142  -0.50000   0.00000   0.75000

Possibly too few bands at point  143  -1.00000   0.00000   0.00000

Possibly too few bands at point  144  -0.75000   0.00000   0.00000

Possibly too few bands at point  145   0.50000  -0.25000   0.00000

Possibly too few bands at point  146   0.75000  -0.25000   0.00000

Possibly too few bands at point  147   0.25000   0.50000   0.00000

Possibly too few bands at point  148   0.50000   0.50000   0.00000

Possibly too few bands at point  149  -0.50000   0.25000   0.00000

Possibly too few bands at point  150  -0.25000   0.25000   0.00000

Possibly too few bands at point  151   0.00000  -0.50000   0.25000

Possibly too few bands at point  152   0.25000  -0.50000   0.25000

Possibly too few bands at point  153  -0.37500   0.62500   0.87500

Possibly too few bands at point  154  -0.12500   0.62500   0.87500

Possibly too few bands at point  155  -0.62500  -0.37500   0.87500

Possibly too few bands at point  156  -0.37500  -0.37500   0.87500

Possibly too few bands at point  157   0.37500  -0.62500  -0.87500

Possibly too few bands at point  158   0.62500  -0.62500  -0.87500

Possibly too few bands at point  159  -0.87500   0.37500  -0.62500

Possibly too few bands at point  160  -0.62500   0.37500  -0.62500

Possibly too few bands at point  161   0.87500  -0.62500   0.37500

Possibly too few bands at point  162   1.12500  -0.62500   0.37500

Possibly too few bands at point  163  -0.25000   0.50000   0.75000

Possibly too few bands at point  164   0.00000   0.50000   0.75000

Possibly too few bands at point  165   0.25000  -0.50000  -0.75000

Possibly too few bands at point  166   0.50000  -0.50000  -0.75000

Possibly too few bands at point  167  -0.25000   0.75000   1.00000

Possibly too few bands at point  168   0.00000   0.75000   1.00000

Possibly too few bands at point  169  -0.75000  -0.25000   1.00000

Possibly too few bands at point  170  -0.50000  -0.25000   1.00000

Possibly too few bands at point  171   0.25000  -0.75000  -1.00000

Possibly too few bands at point  172   0.50000  -0.75000  -1.00000

Possibly too few bands at point  173  -1.00000   0.25000  -0.75000

Possibly too few bands at point  174  -0.75000   0.25000  -0.75000

Possibly too few bands at point  175  -0.12500   0.62500   0.87500

Possibly too few bands at point  176   0.12500   0.62500   0.87500

Possibly too few bands at point  177  -0.62500  -0.12500   0.87500

Possibly too few bands at point  178  -0.37500  -0.12500   0.87500

Possibly too few bands at point  179   0.12500  -0.62500  -0.87500

Possibly too few bands at point  180   0.37500  -0.62500  -0.87500

Possibly too few bands at point  181  -0.87500   0.12500  -0.62500

Possibly too few bands at point  182  -0.62500   0.12500  -0.62500

Possibly too few bands at point  183   0.87500  -0.62500   0.12500

Possibly too few bands at point  184   1.12500  -0.62500   0.12500

Possibly too few bands at point  185   0.00000   0.50000   0.75000

Possibly too few bands at point  186   0.25000   0.50000   0.75000

Possibly too few bands at point  187  -0.50000   0.00000   0.75000

Possibly too few bands at point  188  -0.25000   0.00000   0.75000

Possibly too few bands at point  189  -0.75000   0.00000  -0.50000

Possibly too few bands at point  190  -0.50000   0.00000  -0.50000

Possibly too few bands at point  191   0.75000  -0.50000   0.00000

Possibly too few bands at point  192   1.00000  -0.50000   0.00000

Possibly too few bands at point  193  -1.00000  -0.25000   0.00000

Possibly too few bands at point  194  -0.75000  -0.25000   0.00000

Possibly too few bands at point  195   0.25000  -1.00000   0.00000

Possibly too few bands at point  196   0.50000  -1.00000   0.00000

Possibly too few bands at point  197   0.00000   1.00000   0.25000

Possibly too few bands at point  198   0.25000   1.00000   0.25000

Possibly too few bands at point  199  -1.00000  -0.50000   0.00000

Possibly too few bands at point  200  -0.75000  -0.50000   0.00000

                                                                                

     bravais-lattice index     =            2
     lattice parameter (alat)  =       7.5000  a.u.
     unit-cell volume          =     105.4688 (a.u.)^3
     number of atoms/cell      =            1
     number of atomic types    =            1
     kinetic-energy cut-off    =      15.0000  Ry
     charge density cut-off    =      60.0000  Ry
     convergence threshold     =      1.0E-10
     beta                      =       0.7000
     number of iterations used =            4
     Exchange-correlation      =  SLA  PZ   NOGX NOGC ( 1  1  0  0 0 0)


     celldm(1)=    7.50000  celldm(2)=    0.00000  celldm(3)=    0.00000
     celldm(4)=    0.00000  celldm(5)=    0.00000  celldm(6)=    0.00000

     crystal axes: (cart. coord. in units of alat)
               a(1) = ( -0.5000  0.0000  0.5000 )  
               a(2) = (  0.0000  0.5000  0.5000 )  
               a(3) = ( -0.5000  0.5000  0.0000 )  

     reciprocal axes: (cart. coord. in units 2 pi/alat)
               b(1) = ( -1.0000 -1.0000  1.0000 )  
               b(2) = (  1.0000  1.0000  1.0000 )  
               b(3) = ( -1.0000  1.0000 -1.0000 )  


     Atoms inside the unit cell: 

     Cartesian axes

     site n.  atom      mass           positions (alat units)
        1     Al  26.9800   tau(    1) = (    0.00000    0.00000    0.00000  )

     Computing dynamical matrix for 
                    q = (   0.2500000   0.0000000   0.0000000 )
 
      8 Sym.Ops. (no q -> -q+G )


     G cutoff =   85.4897  (    435 G-vectors)     FFT grid: ( 15, 15, 15)

     number of k points=   200  Methfessel-Paxton smearing, width (Ry)=  0.0500

     PseudoPot. # 1 for Al read from file:
     /home/nvarini/espresso_hdf5/espresso/pseudo/Al.pz-vbc.UPF
     MD5 check sum: 614279c88ff8d45c90147292d03ed420
     Pseudo is Norm-conserving, Zval =  3.0
     Generated by new atomic code, or converted to UPF format
     Using radial grid of  171 points,  2 beta functions with: 
                l(1) =   0
                l(2) =   1

     Mode symmetry, C_4v (4mm)  point group:


     Atomic displacements:
     There are   2 irreducible representations

     Representation     1      1 modes -A_1  G_1 D_1  Done

     Representation     2      2 modes -E    G_5 D_5  Done


     PHONON       :     2.11s CPU         2.12s WALL

 
     Number of q in the star =    6
     List of q in the star:
          1   0.250000000   0.000000000   0.000000000
          2   0.000000000   0.250000000   0.000000000
          3  -0.250000000   0.000000000   0.000000000
          4   0.000000000  -0.250000000   0.000000000
          5   0.000000000   0.000000000  -0.250000000
          6   0.000000000   0.000000000   0.250000000

     Diagonalizing the dynamical matrix

     q = (    0.250000000   0.000000000   0.000000000 ) 

 **************************************************************************
     freq (    1) =       2.361619 [THz] =      78.775127 [cm-1]
     freq (    2) =       2.361619 [THz] =      78.775127 [cm-1]
     freq (    3) =       4.129249 [THz] =     137.736922 [cm-1]
 **************************************************************************

     Mode symmetry, C_4v (4mm)  point group:

     freq (  1 -  2) =         78.8  [cm-1]   --> E    G_5 D_5       
     freq (  3 -  3) =        137.7  [cm-1]   --> A_1  G_1 D_1       

     Calculation of q =    0.5000000   0.0000000   0.0000000
 
     Parallelization info
     --------------------
     sticks:   dense  smooth     PW     G-vecs:    dense   smooth      PW
     Min          60      60     27                  434      434     129
     Max          61      61     28                  435      435     130
     Sum         121     121     55                  869      869     259
 


     bravais-lattice index     =            2
     lattice parameter (alat)  =       7.5000  a.u.
     unit-cell volume          =     105.4688 (a.u.)^3
     number of atoms/cell      =            1
     number of atomic types    =            1
     number of electrons       =         3.00
     number of Kohn-Sham states=            6
     kinetic-energy cutoff     =      15.0000  Ry
     charge density cutoff     =      60.0000  Ry
     Exchange-correlation      =  SLA  PZ   NOGX NOGC ( 1  1  0  0 0 0)

     celldm(1)=   7.500000  celldm(2)=   0.000000  celldm(3)=   0.000000
     celldm(4)=   0.000000  celldm(5)=   0.000000  celldm(6)=   0.000000

     crystal axes: (cart. coord. in units of alat)
               a(1) = (  -0.500000   0.000000   0.500000 )  
               a(2) = (   0.000000   0.500000   0.500000 )  
               a(3) = (  -0.500000   0.500000   0.000000 )  

     reciprocal axes: (cart. coord. in units 2 pi/alat)
               b(1) = ( -1.000000 -1.000000  1.000000 )  
               b(2) = (  1.000000  1.000000  1.000000 )  
               b(3) = ( -1.000000  1.000000 -1.000000 )  


     PseudoPot. # 1 for Al read from file:
     /home/nvarini/espresso_hdf5/espresso/pseudo/Al.pz-vbc.UPF
     MD5 check sum: 614279c88ff8d45c90147292d03ed420
     Pseudo is Norm-conserving, Zval =  3.0
     Generated by new atomic code, or converted to UPF format
     Using radial grid of  171 points,  2 beta functions with: 
                l(1) =   0
                l(2) =   1

     atomic species   valence    mass     pseudopotential
        Al             3.00    26.98000     Al( 1.00)

     48 Sym. Ops., with inversion, found



   Cartesian axes

     site n.     atom                  positions (alat units)
         1           Al  tau(   1) = (   0.0000000   0.0000000   0.0000000  )

     number of k points=   200  Methfessel-Paxton smearing, width (Ry)=  0.0500

     Number of k-points >= 100: set verbosity='high' to print them.

     Dense  grid:      869 G-vectors     FFT dimensions: (  15,  15,  15)

     Largest allocated arrays     est. size (Mb)     dimensions
        Kohn-Sham Wavefunctions         0.01 Mb     (      66,    6)
        NL pseudopotentials             0.00 Mb     (      66,    4)
        Each V/rho on FFT grid          0.03 Mb     (    1800)
        Each G-vector array             0.00 Mb     (     435)
        G-vector shells                 0.00 Mb     (      31)
     Largest temporary arrays     est. size (Mb)     dimensions
        Auxiliary wavefunctions         0.02 Mb     (      66,   24)
        Each subspace H/S matrix        0.01 Mb     (      24,   24)
        Each <psi_i|beta_j> matrix      0.00 Mb     (       4,    6)

     The potential is recalculated from file :
     /home/nvarini/espresso_hdf5/espresso/tempdir/_ph0/al.save/charge-density.hdf5

     Starting wfc are    4 atomic +    2 random wfc

Possibly too few bands at point    1   0.00000   0.00000   0.00000

Possibly too few bands at point    2   0.50000   0.00000   0.00000

Possibly too few bands at point    3  -0.12500   0.12500  -0.12500

Possibly too few bands at point    4   0.37500   0.12500  -0.12500

Possibly too few bands at point    5  -0.25000   0.25000  -0.25000

Possibly too few bands at point    6   0.25000   0.25000  -0.25000

Possibly too few bands at point    7  -0.37500   0.37500  -0.37500

Possibly too few bands at point    8   0.12500   0.37500  -0.37500

Possibly too few bands at point    9   0.50000  -0.50000   0.50000

Possibly too few bands at point   10   1.00000  -0.50000   0.50000

Possibly too few bands at point   11   0.00000   0.25000   0.00000

Possibly too few bands at point   12   0.50000   0.25000   0.00000

Possibly too few bands at point   13  -0.12500   0.37500  -0.12500

Possibly too few bands at point   14   0.37500   0.37500  -0.12500

Possibly too few bands at point   15  -0.25000   0.50000  -0.25000

Possibly too few bands at point   16   0.25000   0.50000  -0.25000

Possibly too few bands at point   17   0.62500  -0.37500   0.62500

Possibly too few bands at point   18   1.12500  -0.37500   0.62500

Possibly too few bands at point   19   0.50000  -0.25000   0.50000

Possibly too few bands at point   20   1.00000  -0.25000   0.50000

Possibly too few bands at point   21   0.37500  -0.12500   0.37500

Possibly too few bands at point   22   0.87500  -0.12500   0.37500

Possibly too few bands at point   23   0.25000   0.00000   0.25000

Possibly too few bands at point   24   0.75000   0.00000   0.25000

Possibly too few bands at point   25   0.00000   0.50000   0.00000

Possibly too few bands at point   26   0.50000   0.50000   0.00000

Possibly too few bands at point   27  -0.12500   0.62500  -0.12500

Possibly too few bands at point   28   0.37500   0.62500  -0.12500

Possibly too few bands at point   29   0.75000  -0.25000   0.75000

Possibly too few bands at point   30   1.25000  -0.25000   0.75000

Possibly too few bands at point   31   0.62500  -0.12500   0.62500

Possibly too few bands at point   32   1.12500  -0.12500   0.62500

Possibly too few bands at point   33   0.50000   0.00000   0.50000

Possibly too few bands at point   34   1.00000   0.00000   0.50000

Possibly too few bands at point   35   0.00000   0.75000   0.00000

Possibly too few bands at point   36   0.50000   0.75000   0.00000

Possibly too few bands at point   37   0.87500  -0.12500   0.87500

Possibly too few bands at point   38   1.37500  -0.12500   0.87500

Possibly too few bands at point   39   0.75000   0.00000   0.75000

Possibly too few bands at point   40   1.25000   0.00000   0.75000

Possibly too few bands at point   41   0.00000  -1.00000   0.00000

Possibly too few bands at point   42   0.50000  -1.00000   0.00000

Possibly too few bands at point   43  -0.25000   0.50000   0.00000

Possibly too few bands at point   44   0.25000   0.50000   0.00000

Possibly too few bands at point   45   0.62500  -0.37500   0.87500

Possibly too few bands at point   46   1.12500  -0.37500   0.87500

Possibly too few bands at point   47   0.50000  -0.25000   0.75000

Possibly too few bands at point   48   1.00000  -0.25000   0.75000

Possibly too few bands at point   49   0.75000  -0.25000   1.00000

Possibly too few bands at point   50   1.25000  -0.25000   1.00000

Possibly too few bands at point   51   0.62500  -0.12500   0.87500

Possibly too few bands at point   52   1.12500  -0.12500   0.87500

Possibly too few bands at point   53   0.50000   0.00000   0.75000

Possibly too few bands at point   54   1.00000   0.00000   0.75000

Possibly too few bands at point   55  -0.25000  -1.00000   0.00000

Possibly too few bands at point   56   0.25000  -1.00000   0.00000

Possibly too few bands at point   57  -0.50000  -1.00000   0.00000

Possibly too few bands at point   58   0.00000  -1.00000   0.00000

Possibly too few bands at point   59   0.12500  -0.12500  -0.12500

Possibly too few bands at point   60   0.62500  -0.12500  -0.12500

Possibly too few bands at point   61   0.25000  -0.25000  -0.25000

Possibly too few bands at point   62   0.75000  -0.25000  -0.25000

Possibly too few bands at point   63   0.37500  -0.37500  -0.37500

Possibly too few bands at point   64   0.87500  -0.37500  -0.37500

Possibly too few bands at point   65   0.25000   0.00000   0.00000

Possibly too few bands at point   66   0.75000   0.00000   0.00000

Possibly too few bands at point   67  -0.25000   0.00000   0.00000

Possibly too few bands at point   68   0.25000   0.00000   0.00000

Possibly too few bands at point   69   0.37500  -0.12500  -0.12500

Possibly too few bands at point   70   0.87500  -0.12500  -0.12500

Possibly too few bands at point   71   0.12500   0.37500  -0.12500

Possibly too few bands at point   72   0.62500   0.37500  -0.12500

Possibly too few bands at point   73  -0.37500   0.12500   0.12500

Possibly too few bands at point   74   0.12500   0.12500   0.12500

Possibly too few bands at point   75   0.50000  -0.25000  -0.25000

Possibly too few bands at point   76   1.00000  -0.25000  -0.25000

Possibly too few bands at point   77   0.25000   0.50000  -0.25000

Possibly too few bands at point   78   0.75000   0.50000  -0.25000

Possibly too few bands at point   79  -0.50000   0.25000   0.25000

Possibly too few bands at point   80   0.00000   0.25000   0.25000

Possibly too few bands at point   81  -0.37500   0.62500   0.62500

Possibly too few bands at point   82   0.12500   0.62500   0.62500

Possibly too few bands at point   83  -0.62500  -0.37500   0.62500

Possibly too few bands at point   84  -0.12500  -0.37500   0.62500

Possibly too few bands at point   85   0.37500  -0.62500  -0.62500

Possibly too few bands at point   86   0.87500  -0.62500  -0.62500

Possibly too few bands at point   87  -0.25000   0.50000   0.50000

Possibly too few bands at point   88   0.25000   0.50000   0.50000

Possibly too few bands at point   89  -0.50000  -0.25000   0.50000

Possibly too few bands at point   90   0.00000  -0.25000   0.50000

Possibly too few bands at point   91   0.25000  -0.50000  -0.50000

Possibly too few bands at point   92   0.75000  -0.50000  -0.50000

Possibly too few bands at point   93  -0.12500   0.37500   0.37500

Possibly too few bands at point   94   0.37500   0.37500   0.37500

Possibly too few bands at point   95  -0.37500  -0.12500   0.37500

Possibly too few bands at point   96   0.12500  -0.12500   0.37500

Possibly too few bands at point   97   0.12500  -0.37500  -0.37500

Possibly too few bands at point   98   0.62500  -0.37500  -0.37500

Possibly too few bands at point   99   0.00000   0.25000   0.25000

Possibly too few bands at point  100   0.50000   0.25000   0.25000

Possibly too few bands at point  101  -0.25000   0.00000   0.25000

Possibly too few bands at point  102   0.25000   0.00000   0.25000

Possibly too few bands at point  103   0.50000   0.00000   0.00000

Possibly too few bands at point  104   1.00000   0.00000   0.00000

Possibly too few bands at point  105  -0.50000   0.00000   0.00000

Possibly too few bands at point  106   0.00000   0.00000   0.00000

Possibly too few bands at point  107   0.62500  -0.12500  -0.12500

Possibly too few bands at point  108   1.12500  -0.12500  -0.12500

Possibly too few bands at point  109   0.12500   0.62500  -0.12500

Possibly too few bands at point  110   0.62500   0.62500  -0.12500

Possibly too few bands at point  111  -0.62500   0.12500   0.12500

Possibly too few bands at point  112  -0.12500   0.12500   0.12500

Possibly too few bands at point  113  -0.25000   0.75000   0.75000

Possibly too few bands at point  114   0.25000   0.75000   0.75000

Possibly too few bands at point  115  -0.75000  -0.25000   0.75000

Possibly too few bands at point  116  -0.25000  -0.25000   0.75000

Possibly too few bands at point  117   0.25000  -0.75000  -0.75000

Possibly too few bands at point  118   0.75000  -0.75000  -0.75000

Possibly too few bands at point  119  -0.12500   0.62500   0.62500

Possibly too few bands at point  120   0.37500   0.62500   0.62500

Possibly too few bands at point  121  -0.62500  -0.12500   0.62500

Possibly too few bands at point  122  -0.12500  -0.12500   0.62500

Possibly too few bands at point  123   0.12500  -0.62500  -0.62500

Possibly too few bands at point  124   0.62500  -0.62500  -0.62500

Possibly too few bands at point  125   0.00000   0.50000   0.50000

Possibly too few bands at point  126   0.50000   0.50000   0.50000

Possibly too few bands at point  127  -0.50000   0.00000   0.50000

Possibly too few bands at point  128   0.00000   0.00000   0.50000

Possibly too few bands at point  129   0.75000   0.00000   0.00000

Possibly too few bands at point  130   1.25000   0.00000   0.00000

Possibly too few bands at point  131  -0.75000   0.00000   0.00000

Possibly too few bands at point  132  -0.25000   0.00000   0.00000

Possibly too few bands at point  133  -0.12500   0.87500   0.87500

Possibly too few bands at point  134   0.37500   0.87500   0.87500

Possibly too few bands at point  135  -0.87500  -0.12500   0.87500

Possibly too few bands at point  136  -0.37500  -0.12500   0.87500

Possibly too few bands at point  137   0.12500  -0.87500  -0.87500

Possibly too few bands at point  138   0.62500  -0.87500  -0.87500

Possibly too few bands at point  139   0.00000   0.75000   0.75000

Possibly too few bands at point  140   0.50000   0.75000   0.75000

Possibly too few bands at point  141  -0.75000   0.00000   0.75000

Possibly too few bands at point  142  -0.25000   0.00000   0.75000

Possibly too few bands at point  143  -1.00000   0.00000   0.00000

Possibly too few bands at point  144  -0.50000   0.00000   0.00000

Possibly too few bands at point  145   0.50000  -0.25000   0.00000

Possibly too few bands at point  146   1.00000  -0.25000   0.00000

Possibly too few bands at point  147   0.25000   0.50000   0.00000

Possibly too few bands at point  148   0.75000   0.50000   0.00000

Possibly too few bands at point  149  -0.50000   0.25000   0.00000

Possibly too few bands at point  150   0.00000   0.25000   0.00000

Possibly too few bands at point  151   0.00000  -0.50000   0.25000

Possibly too few bands at point  152   0.50000  -0.50000   0.25000

Possibly too few bands at point  153  -0.37500   0.62500   0.87500

Possibly too few bands at point  154   0.12500   0.62500   0.87500

Possibly too few bands at point  155  -0.62500  -0.37500   0.87500

Possibly too few bands at point  156  -0.12500  -0.37500   0.87500

Possibly too few bands at point  157   0.37500  -0.62500  -0.87500

Possibly too few bands at point  158   0.87500  -0.62500  -0.87500

Possibly too few bands at point  159  -0.87500   0.37500  -0.62500

Possibly too few bands at point  160  -0.37500   0.37500  -0.62500

Possibly too few bands at point  161   0.87500  -0.62500   0.37500

Possibly too few bands at point  162   1.37500  -0.62500   0.37500

Possibly too few bands at point  163  -0.25000   0.50000   0.75000

Possibly too few bands at point  164   0.25000   0.50000   0.75000

Possibly too few bands at point  165   0.25000  -0.50000  -0.75000

Possibly too few bands at point  166   0.75000  -0.50000  -0.75000

Possibly too few bands at point  167  -0.25000   0.75000   1.00000

Possibly too few bands at point  168   0.25000   0.75000   1.00000

Possibly too few bands at point  169  -0.75000  -0.25000   1.00000

Possibly too few bands at point  170  -0.25000  -0.25000   1.00000

Possibly too few bands at point  171   0.25000  -0.75000  -1.00000

Possibly too few bands at point  172   0.75000  -0.75000  -1.00000

Possibly too few bands at point  173  -1.00000   0.25000  -0.75000

Possibly too few bands at point  174  -0.50000   0.25000  -0.75000

Possibly too few bands at point  175  -0.12500   0.62500   0.87500

Possibly too few bands at point  176   0.37500   0.62500   0.87500

Possibly too few bands at point  177  -0.62500  -0.12500   0.87500

Possibly too few bands at point  178  -0.12500  -0.12500   0.87500

Possibly too few bands at point  179   0.12500  -0.62500  -0.87500

Possibly too few bands at point  180   0.62500  -0.62500  -0.87500

Possibly too few bands at point  181  -0.87500   0.12500  -0.62500

Possibly too few bands at point  182  -0.37500   0.12500  -0.62500

Possibly too few bands at point  183   0.87500  -0.62500   0.12500

Possibly too few bands at point  184   1.37500  -0.62500   0.12500

Possibly too few bands at point  185   0.00000   0.50000   0.75000

Possibly too few bands at point  186   0.50000   0.50000   0.75000

Possibly too few bands at point  187  -0.50000   0.00000   0.75000

Possibly too few bands at point  188   0.00000   0.00000   0.75000

Possibly too few bands at point  189  -0.75000   0.00000  -0.50000

Possibly too few bands at point  190  -0.25000   0.00000  -0.50000

Possibly too few bands at point  191   0.75000  -0.50000   0.00000

Possibly too few bands at point  192   1.25000  -0.50000   0.00000

Possibly too few bands at point  193  -1.00000  -0.25000   0.00000

Possibly too few bands at point  194  -0.50000  -0.25000   0.00000

Possibly too few bands at point  195   0.25000  -1.00000   0.00000

Possibly too few bands at point  196   0.75000  -1.00000   0.00000

Possibly too few bands at point  197   0.00000   1.00000   0.25000

Possibly too few bands at point  198   0.50000   1.00000   0.25000

Possibly too few bands at point  199  -1.00000  -0.50000   0.00000

Possibly too few bands at point  200  -0.50000  -0.50000   0.00000

                                                                                

     bravais-lattice index     =            2
     lattice parameter (alat)  =       7.5000  a.u.
     unit-cell volume          =     105.4688 (a.u.)^3
     number of atoms/cell      =            1
     number of atomic types    =            1
     kinetic-energy cut-off    =      15.0000  Ry
     charge density cut-off    =      60.0000  Ry
     convergence threshold     =      1.0E-10
     beta                      =       0.7000
     number of iterations used =            4
     Exchange-correlation      =  SLA  PZ   NOGX NOGC ( 1  1  0  0 0 0)


     celldm(1)=    7.50000  celldm(2)=    0.00000  celldm(3)=    0.00000
     celldm(4)=    0.00000  celldm(5)=    0.00000  celldm(6)=    0.00000

     crystal axes: (cart. coord. in units of alat)
               a(1) = ( -0.5000  0.0000  0.5000 )  
               a(2) = (  0.0000  0.5000  0.5000 )  
               a(3) = ( -0.5000  0.5000  0.0000 )  

     reciprocal axes: (cart. coord. in units 2 pi/alat)
               b(1) = ( -1.0000 -1.0000  1.0000 )  
               b(2) = (  1.0000  1.0000  1.0000 )  
               b(3) = ( -1.0000  1.0000 -1.0000 )  


     Atoms inside the unit cell: 

     Cartesian axes

     site n.  atom      mass           positions (alat units)
        1     Al  26.9800   tau(    1) = (    0.00000    0.00000    0.00000  )

     Computing dynamical matrix for 
                    q = (   0.5000000   0.0000000   0.0000000 )
 
      8 Sym.Ops. (no q -> -q+G )


     G cutoff =   85.4897  (    435 G-vectors)     FFT grid: ( 15, 15, 15)

     number of k points=   200  Methfessel-Paxton smearing, width (Ry)=  0.0500

     PseudoPot. # 1 for Al read from file:
     /home/nvarini/espresso_hdf5/espresso/pseudo/Al.pz-vbc.UPF
     MD5 check sum: 614279c88ff8d45c90147292d03ed420
     Pseudo is Norm-conserving, Zval =  3.0
     Generated by new atomic code, or converted to UPF format
     Using radial grid of  171 points,  2 beta functions with: 
                l(1) =   0
                l(2) =   1

     Mode symmetry, C_4v (4mm)  point group:


     Atomic displacements:
     There are   2 irreducible representations

     Representation     1      1 modes -A_1  G_1 D_1  Done

     Representation     2      2 modes -E    G_5 D_5  Done


     PHONON       :     2.13s CPU         2.14s WALL

 
     Number of q in the star =    6
     List of q in the star:
          1   0.500000000   0.000000000   0.000000000
          2   0.000000000   0.500000000   0.000000000
          3  -0.500000000   0.000000000   0.000000000
          4   0.000000000  -0.500000000   0.000000000
          5   0.000000000   0.000000000  -0.500000000
          6   0.000000000   0.000000000   0.500000000

     Diagonalizing the dynamical matrix

     q = (    0.500000000   0.000000000   0.000000000 ) 

 **************************************************************************
     freq (    1) =       4.263836 [THz] =     142.226268 [cm-1]
     freq (    2) =       4.263836 [THz] =     142.226268 [cm-1]
     freq (    3) =       6.783999 [THz] =     226.289840 [cm-1]
 **************************************************************************

     Mode symmetry, C_4v (4mm)  point group:

     freq (  1 -  2) =        142.2  [cm-1]   --> E    G_5 D_5       
     freq (  3 -  3) =        226.3  [cm-1]   --> A_1  G_1 D_1       

     Calculation of q =    0.7500000   0.0000000   0.0000000
 
     Parallelization info
     --------------------
     sticks:   dense  smooth     PW     G-vecs:    dense   smooth      PW
     Min          60      60     27                  434      434     141
     Max          61      61     28                  435      435     142
     Sum         121     121     55                  869      869     283
 


     bravais-lattice index     =            2
     lattice parameter (alat)  =       7.5000  a.u.
     unit-cell volume          =     105.4688 (a.u.)^3
     number of atoms/cell      =            1
     number of atomic types    =            1
     number of electrons       =         3.00
     number of Kohn-Sham states=            6
     kinetic-energy cutoff     =      15.0000  Ry
     charge density cutoff     =      60.0000  Ry
     Exchange-correlation      =  SLA  PZ   NOGX NOGC ( 1  1  0  0 0 0)

     celldm(1)=   7.500000  celldm(2)=   0.000000  celldm(3)=   0.000000
     celldm(4)=   0.000000  celldm(5)=   0.000000  celldm(6)=   0.000000

     crystal axes: (cart. coord. in units of alat)
               a(1) = (  -0.500000   0.000000   0.500000 )  
               a(2) = (   0.000000   0.500000   0.500000 )  
               a(3) = (  -0.500000   0.500000   0.000000 )  

     reciprocal axes: (cart. coord. in units 2 pi/alat)
               b(1) = ( -1.000000 -1.000000  1.000000 )  
               b(2) = (  1.000000  1.000000  1.000000 )  
               b(3) = ( -1.000000  1.000000 -1.000000 )  


     PseudoPot. # 1 for Al read from file:
     /home/nvarini/espresso_hdf5/espresso/pseudo/Al.pz-vbc.UPF
     MD5 check sum: 614279c88ff8d45c90147292d03ed420
     Pseudo is Norm-conserving, Zval =  3.0
     Generated by new atomic code, or converted to UPF format
     Using radial grid of  171 points,  2 beta functions with: 
                l(1) =   0
                l(2) =   1

     atomic species   valence    mass     pseudopotential
        Al             3.00    26.98000     Al( 1.00)

     48 Sym. Ops., with inversion, found



   Cartesian axes

     site n.     atom                  positions (alat units)
         1           Al  tau(   1) = (   0.0000000   0.0000000   0.0000000  )

     number of k points=   200  Methfessel-Paxton smearing, width (Ry)=  0.0500

     Number of k-points >= 100: set verbosity='high' to print them.

     Dense  grid:      869 G-vectors     FFT dimensions: (  15,  15,  15)

     Largest allocated arrays     est. size (Mb)     dimensions
        Kohn-Sham Wavefunctions         0.01 Mb     (      58,    6)
        NL pseudopotentials             0.00 Mb     (      58,    4)
        Each V/rho on FFT grid          0.03 Mb     (    1800)
        Each G-vector array             0.00 Mb     (     435)
        G-vector shells                 0.00 Mb     (      31)
     Largest temporary arrays     est. size (Mb)     dimensions
        Auxiliary wavefunctions         0.02 Mb     (      58,   24)
        Each subspace H/S matrix        0.01 Mb     (      24,   24)
        Each <psi_i|beta_j> matrix      0.00 Mb     (       4,    6)

     The potential is recalculated from file :
     /home/nvarini/espresso_hdf5/espresso/tempdir/_ph0/al.save/charge-density.hdf5

     Starting wfc are    4 atomic +    2 random wfc

Possibly too few bands at point    1   0.00000   0.00000   0.00000

Possibly too few bands at point    2   0.75000   0.00000   0.00000

Possibly too few bands at point    3  -0.12500   0.12500  -0.12500

Possibly too few bands at point    4   0.62500   0.12500  -0.12500

Possibly too few bands at point    5  -0.25000   0.25000  -0.25000

Possibly too few bands at point    6   0.50000   0.25000  -0.25000

Possibly too few bands at point    7  -0.37500   0.37500  -0.37500

Possibly too few bands at point    8   0.37500   0.37500  -0.37500

Possibly too few bands at point    9   0.50000  -0.50000   0.50000

Possibly too few bands at point   10   1.25000  -0.50000   0.50000

Possibly too few bands at point   11   0.00000   0.25000   0.00000

Possibly too few bands at point   12   0.75000   0.25000   0.00000

Possibly too few bands at point   13  -0.12500   0.37500  -0.12500

Possibly too few bands at point   14   0.62500   0.37500  -0.12500

Possibly too few bands at point   15  -0.25000   0.50000  -0.25000

Possibly too few bands at point   16   0.50000   0.50000  -0.25000

Possibly too few bands at point   17   0.62500  -0.37500   0.62500

Possibly too few bands at point   18   1.37500  -0.37500   0.62500

Possibly too few bands at point   19   0.50000  -0.25000   0.50000

Possibly too few bands at point   20   1.25000  -0.25000   0.50000

Possibly too few bands at point   21   0.37500  -0.12500   0.37500

Possibly too few bands at point   22   1.12500  -0.12500   0.37500

Possibly too few bands at point   23   0.25000   0.00000   0.25000

Possibly too few bands at point   24   1.00000   0.00000   0.25000

Possibly too few bands at point   25   0.00000   0.50000   0.00000

Possibly too few bands at point   26   0.75000   0.50000   0.00000

Possibly too few bands at point   27  -0.12500   0.62500  -0.12500

Possibly too few bands at point   28   0.62500   0.62500  -0.12500

Possibly too few bands at point   29   0.75000  -0.25000   0.75000

Possibly too few bands at point   30   1.50000  -0.25000   0.75000

Possibly too few bands at point   31   0.62500  -0.12500   0.62500

Possibly too few bands at point   32   1.37500  -0.12500   0.62500

Possibly too few bands at point   33   0.50000   0.00000   0.50000

Possibly too few bands at point   34   1.25000   0.00000   0.50000

Possibly too few bands at point   35   0.00000   0.75000   0.00000

Possibly too few bands at point   36   0.75000   0.75000   0.00000

Possibly too few bands at point   37   0.87500  -0.12500   0.87500

Possibly too few bands at point   38   1.62500  -0.12500   0.87500

Possibly too few bands at point   39   0.75000   0.00000   0.75000

Possibly too few bands at point   40   1.50000   0.00000   0.75000

Possibly too few bands at point   41   0.00000  -1.00000   0.00000

Possibly too few bands at point   42   0.75000  -1.00000   0.00000

Possibly too few bands at point   43  -0.25000   0.50000   0.00000

Possibly too few bands at point   44   0.50000   0.50000   0.00000

Possibly too few bands at point   45   0.62500  -0.37500   0.87500

Possibly too few bands at point   46   1.37500  -0.37500   0.87500

Possibly too few bands at point   47   0.50000  -0.25000   0.75000

Possibly too few bands at point   48   1.25000  -0.25000   0.75000

Possibly too few bands at point   49   0.75000  -0.25000   1.00000

Possibly too few bands at point   50   1.50000  -0.25000   1.00000

Possibly too few bands at point   51   0.62500  -0.12500   0.87500

Possibly too few bands at point   52   1.37500  -0.12500   0.87500

Possibly too few bands at point   53   0.50000   0.00000   0.75000

Possibly too few bands at point   54   1.25000   0.00000   0.75000

Possibly too few bands at point   55  -0.25000  -1.00000   0.00000

Possibly too few bands at point   56   0.50000  -1.00000   0.00000

Possibly too few bands at point   57  -0.50000  -1.00000   0.00000

Possibly too few bands at point   58   0.25000  -1.00000   0.00000

Possibly too few bands at point   59   0.12500  -0.12500  -0.12500

Possibly too few bands at point   60   0.87500  -0.12500  -0.12500

Possibly too few bands at point   61   0.25000  -0.25000  -0.25000

Possibly too few bands at point   62   1.00000  -0.25000  -0.25000

Possibly too few bands at point   63   0.37500  -0.37500  -0.37500

Possibly too few bands at point   64   1.12500  -0.37500  -0.37500

Possibly too few bands at point   65   0.25000   0.00000   0.00000

Possibly too few bands at point   66   1.00000   0.00000   0.00000

Possibly too few bands at point   67  -0.25000   0.00000   0.00000

Possibly too few bands at point   68   0.50000   0.00000   0.00000

Possibly too few bands at point   69   0.37500  -0.12500  -0.12500

Possibly too few bands at point   70   1.12500  -0.12500  -0.12500

Possibly too few bands at point   71   0.12500   0.37500  -0.12500

Possibly too few bands at point   72   0.87500   0.37500  -0.12500

Possibly too few bands at point   73  -0.37500   0.12500   0.12500

Possibly too few bands at point   74   0.37500   0.12500   0.12500

Possibly too few bands at point   75   0.50000  -0.25000  -0.25000

Possibly too few bands at point   76   1.25000  -0.25000  -0.25000

Possibly too few bands at point   77   0.25000   0.50000  -0.25000

Possibly too few bands at point   78   1.00000   0.50000  -0.25000

Possibly too few bands at point   79  -0.50000   0.25000   0.25000

Possibly too few bands at point   80   0.25000   0.25000   0.25000

Possibly too few bands at point   81  -0.37500   0.62500   0.62500

Possibly too few bands at point   82   0.37500   0.62500   0.62500

Possibly too few bands at point   83  -0.62500  -0.37500   0.62500

Possibly too few bands at point   84   0.12500  -0.37500   0.62500

Possibly too few bands at point   85   0.37500  -0.62500  -0.62500

Possibly too few bands at point   86   1.12500  -0.62500  -0.62500

Possibly too few bands at point   87  -0.25000   0.50000   0.50000

Possibly too few bands at point   88   0.50000   0.50000   0.50000

Possibly too few bands at point   89  -0.50000  -0.25000   0.50000

Possibly too few bands at point   90   0.25000  -0.25000   0.50000

Possibly too few bands at point   91   0.25000  -0.50000  -0.50000

Possibly too few bands at point   92   1.00000  -0.50000  -0.50000

Possibly too few bands at point   93  -0.12500   0.37500   0.37500

Possibly too few bands at point   94   0.62500   0.37500   0.37500

Possibly too few bands at point   95  -0.37500  -0.12500   0.37500

Possibly too few bands at point   96   0.37500  -0.12500   0.37500

Possibly too few bands at point   97   0.12500  -0.37500  -0.37500

Possibly too few bands at point   98   0.87500  -0.37500  -0.37500

Possibly too few bands at point   99   0.00000   0.25000   0.25000

Possibly too few bands at point  100   0.75000   0.25000   0.25000

Possibly too few bands at point  101  -0.25000   0.00000   0.25000

Possibly too few bands at point  102   0.50000   0.00000   0.25000

Possibly too few bands at point  103   0.50000   0.00000   0.00000

Possibly too few bands at point  104   1.25000   0.00000   0.00000

Possibly too few bands at point  105  -0.50000   0.00000   0.00000

Possibly too few bands at point  106   0.25000   0.00000   0.00000

Possibly too few bands at point  107   0.62500  -0.12500  -0.12500

Possibly too few bands at point  108   1.37500  -0.12500  -0.12500

Possibly too few bands at point  109   0.12500   0.62500  -0.12500

Possibly too few bands at point  110   0.87500   0.62500  -0.12500

Possibly too few bands at point  111  -0.62500   0.12500   0.12500

Possibly too few bands at point  112   0.12500   0.12500   0.12500

Possibly too few bands at point  113  -0.25000   0.75000   0.75000

Possibly too few bands at point  114   0.50000   0.75000   0.75000

Possibly too few bands at point  115  -0.75000  -0.25000   0.75000

Possibly too few bands at point  116   0.00000  -0.25000   0.75000

Possibly too few bands at point  117   0.25000  -0.75000  -0.75000

Possibly too few bands at point  118   1.00000  -0.75000  -0.75000

Possibly too few bands at point  119  -0.12500   0.62500   0.62500

Possibly too few bands at point  120   0.62500   0.62500   0.62500

Possibly too few bands at point  121  -0.62500  -0.12500   0.62500

Possibly too few bands at point  122   0.12500  -0.12500   0.62500

Possibly too few bands at point  123   0.12500  -0.62500  -0.62500

Possibly too few bands at point  124   0.87500  -0.62500  -0.62500

Possibly too few bands at point  125   0.00000   0.50000   0.50000

Possibly too few bands at point  126   0.75000   0.50000   0.50000

Possibly too few bands at point  127  -0.50000   0.00000   0.50000

Possibly too few bands at point  128   0.25000   0.00000   0.50000

Possibly too few bands at point  129   0.75000   0.00000   0.00000

Possibly too few bands at point  130   1.50000   0.00000   0.00000

Possibly too few bands at point  131  -0.75000   0.00000   0.00000

Possibly too few bands at point  132   0.00000   0.00000   0.00000

Possibly too few bands at point  133  -0.12500   0.87500   0.87500

Possibly too few bands at point  134   0.62500   0.87500   0.87500

Possibly too few bands at point  135  -0.87500  -0.12500   0.87500

Possibly too few bands at point  136  -0.12500  -0.12500   0.87500

Possibly too few bands at point  137   0.12500  -0.87500  -0.87500

Possibly too few bands at point  138   0.87500  -0.87500  -0.87500

Possibly too few bands at point  139   0.00000   0.75000   0.75000

Possibly too few bands at point  140   0.75000   0.75000   0.75000

Possibly too few bands at point  141  -0.75000   0.00000   0.75000

Possibly too few bands at point  142   0.00000   0.00000   0.75000

Possibly too few bands at point  143  -1.00000   0.00000   0.00000

Possibly too few bands at point  144  -0.25000   0.00000   0.00000

Possibly too few bands at point  145   0.50000  -0.25000   0.00000

Possibly too few bands at point  146   1.25000  -0.25000   0.00000

Possibly too few bands at point  147   0.25000   0.50000   0.00000

Possibly too few bands at point  148   1.00000   0.50000   0.00000

Possibly too few bands at point  149  -0.50000   0.25000   0.00000

Possibly too few bands at point  150   0.25000   0.25000   0.00000

Possibly too few bands at point  151   0.00000  -0.50000   0.25000

Possibly too few bands at point  152   0.75000  -0.50000   0.25000

Possibly too few bands at point  153  -0.37500   0.62500   0.87500

Possibly too few bands at point  154   0.37500   0.62500   0.87500

Possibly too few bands at point  155  -0.62500  -0.37500   0.87500

Possibly too few bands at point  156   0.12500  -0.37500   0.87500

Possibly too few bands at point  157   0.37500  -0.62500  -0.87500

Possibly too few bands at point  158   1.12500  -0.62500  -0.87500

Possibly too few bands at point  159  -0.87500   0.37500  -0.62500

Possibly too few bands at point  160  -0.12500   0.37500  -0.62500

Possibly too few bands at point  161   0.87500  -0.62500   0.37500

Possibly too few bands at point  162   1.62500  -0.62500   0.37500

Possibly too few bands at point  163  -0.25000   0.50000   0.75000

Possibly too few bands at point  164   0.50000   0.50000   0.75000

Possibly too few bands at point  165   0.25000  -0.50000  -0.75000

Possibly too few bands at point  166   1.00000  -0.50000  -0.75000

Possibly too few bands at point  167  -0.25000   0.75000   1.00000

Possibly too few bands at point  168   0.50000   0.75000   1.00000

Possibly too few bands at point  169  -0.75000  -0.25000   1.00000

Possibly too few bands at point  170   0.00000  -0.25000   1.00000

Possibly too few bands at point  171   0.25000  -0.75000  -1.00000

Possibly too few bands at point  172   1.00000  -0.75000  -1.00000

Possibly too few bands at point  173  -1.00000   0.25000  -0.75000

Possibly too few bands at point  174  -0.25000   0.25000  -0.75000

Possibly too few bands at point  175  -0.12500   0.62500   0.87500

Possibly too few bands at point  176   0.62500   0.62500   0.87500

Possibly too few bands at point  177  -0.62500  -0.12500   0.87500

Possibly too few bands at point  178   0.12500  -0.12500   0.87500

Possibly too few bands at point  179   0.12500  -0.62500  -0.87500

Possibly too few bands at point  180   0.87500  -0.62500  -0.87500

Possibly too few bands at point  181  -0.87500   0.12500  -0.62500

Possibly too few bands at point  182  -0.12500   0.12500  -0.62500

Possibly too few bands at point  183   0.87500  -0.62500   0.12500

Possibly too few bands at point  184   1.62500  -0.62500   0.12500

Possibly too few bands at point  185   0.00000   0.50000   0.75000

Possibly too few bands at point  186   0.75000   0.50000   0.75000

Possibly too few bands at point  187  -0.50000   0.00000   0.75000

Possibly too few bands at point  188   0.25000   0.00000   0.75000

Possibly too few bands at point  189  -0.75000   0.00000  -0.50000

Possibly too few bands at point  190   0.00000   0.00000  -0.50000

Possibly too few bands at point  191   0.75000  -0.50000   0.00000

Possibly too few bands at point  192   1.50000  -0.50000   0.00000

Possibly too few bands at point  193  -1.00000  -0.25000   0.00000

Possibly too few bands at point  194  -0.25000  -0.25000   0.00000

Possibly too few bands at point  195   0.25000  -1.00000   0.00000

Possibly too few bands at point  196   1.00000  -1.00000   0.00000

Possibly too few bands at point  197   0.00000   1.00000   0.25000

Possibly too few bands at point  198   0.75000   1.00000   0.25000

Possibly too few bands at point  199  -1.00000  -0.50000   0.00000

Possibly too few bands at point  200  -0.25000  -0.50000   0.00000

                                                                                

     bravais-lattice index     =            2
     lattice parameter (alat)  =       7.5000  a.u.
     unit-cell volume          =     105.4688 (a.u.)^3
     number of atoms/cell      =            1
     number of atomic types    =            1
     kinetic-energy cut-off    =      15.0000  Ry
     charge density cut-off    =      60.0000  Ry
     convergence threshold     =      1.0E-10
     beta                      =       0.7000
     number of iterations used =            4
     Exchange-correlation      =  SLA  PZ   NOGX NOGC ( 1  1  0  0 0 0)


     celldm(1)=    7.50000  celldm(2)=    0.00000  celldm(3)=    0.00000
     celldm(4)=    0.00000  celldm(5)=    0.00000  celldm(6)=    0.00000

     crystal axes: (cart. coord. in units of alat)
               a(1) = ( -0.5000  0.0000  0.5000 )  
               a(2) = (  0.0000  0.5000  0.5000 )  
               a(3) = ( -0.5000  0.5000  0.0000 )  

     reciprocal axes: (cart. coord. in units 2 pi/alat)
               b(1) = ( -1.0000 -1.0000  1.0000 )  
               b(2) = (  1.0000  1.0000  1.0000 )  
               b(3) = ( -1.0000  1.0000 -1.0000 )  


     Atoms inside the unit cell: 

     Cartesian axes

     site n.  atom      mass           positions (alat units)
        1     Al  26.9800   tau(    1) = (    0.00000    0.00000    0.00000  )

     Computing dynamical matrix for 
                    q = (   0.7500000   0.0000000   0.0000000 )
 
      8 Sym.Ops. (no q -> -q+G )


     G cutoff =   85.4897  (    435 G-vectors)     FFT grid: ( 15, 15, 15)

     number of k points=   200  Methfessel-Paxton smearing, width (Ry)=  0.0500

     PseudoPot. # 1 for Al read from file:
     /home/nvarini/espresso_hdf5/espresso/pseudo/Al.pz-vbc.UPF
     MD5 check sum: 614279c88ff8d45c90147292d03ed420
     Pseudo is Norm-conserving, Zval =  3.0
     Generated by new atomic code, or converted to UPF format
     Using radial grid of  171 points,  2 beta functions with: 
                l(1) =   0
                l(2) =   1

     Mode symmetry, C_4v (4mm)  point group:


     Atomic displacements:
     There are   2 irreducible representations

     Representation     1      1 modes -A_1  G_1 D_1  Done

     Representation     2      2 modes -E    G_5 D_5  Done


     PHONON       :     2.14s CPU         2.16s WALL

 
     Number of q in the star =    6
     List of q in the star:
          1   0.750000000   0.000000000   0.000000000
          2   0.000000000   0.750000000   0.000000000
          3  -0.750000000   0.000000000   0.000000000
          4   0.000000000  -0.750000000   0.000000000
          5   0.000000000   0.000000000  -0.750000000
          6   0.000000000   0.000000000   0.750000000

     Diagonalizing the dynamical matrix

     q = (    0.750000000   0.000000000   0.000000000 ) 

 **************************************************************************
     freq (    1) =       5.454457 [THz] =     181.941112 [cm-1]
     freq (    2) =       5.454457 [THz] =     181.941112 [cm-1]
     freq (    3) =       8.330596 [THz] =     277.878786 [cm-1]
 **************************************************************************

     Mode symmetry, C_4v (4mm)  point group:

     freq (  1 -  2) =        181.9  [cm-1]   --> E    G_5 D_5       
     freq (  3 -  3) =        277.9  [cm-1]   --> A_1  G_1 D_1       

     Calculation of q =    1.0000000   0.0000000   0.0000000
 
     Parallelization info
     --------------------
     sticks:   dense  smooth     PW     G-vecs:    dense   smooth      PW
     Min          60      60     30                  434      434     165
     Max          61      61     31                  435      435     166
     Sum         121     121     61                  869      869     331
 


     bravais-lattice index     =            2
     lattice parameter (alat)  =       7.5000  a.u.
     unit-cell volume          =     105.4688 (a.u.)^3
     number of atoms/cell      =            1
     number of atomic types    =            1
     number of electrons       =         3.00
     number of Kohn-Sham states=            6
     kinetic-energy cutoff     =      15.0000  Ry
     charge density cutoff     =      60.0000  Ry
     Exchange-correlation      =  SLA  PZ   NOGX NOGC ( 1  1  0  0 0 0)

     celldm(1)=   7.500000  celldm(2)=   0.000000  celldm(3)=   0.000000
     celldm(4)=   0.000000  celldm(5)=   0.000000  celldm(6)=   0.000000

     crystal axes: (cart. coord. in units of alat)
               a(1) = (  -0.500000   0.000000   0.500000 )  
               a(2) = (   0.000000   0.500000   0.500000 )  
               a(3) = (  -0.500000   0.500000   0.000000 )  

     reciprocal axes: (cart. coord. in units 2 pi/alat)
               b(1) = ( -1.000000 -1.000000  1.000000 )  
               b(2) = (  1.000000  1.000000  1.000000 )  
               b(3) = ( -1.000000  1.000000 -1.000000 )  


     PseudoPot. # 1 for Al read from file:
     /home/nvarini/espresso_hdf5/espresso/pseudo/Al.pz-vbc.UPF
     MD5 check sum: 614279c88ff8d45c90147292d03ed420
     Pseudo is Norm-conserving, Zval =  3.0
     Generated by new atomic code, or converted to UPF format
     Using radial grid of  171 points,  2 beta functions with: 
                l(1) =   0
                l(2) =   1

     atomic species   valence    mass     pseudopotential
        Al             3.00    26.98000     Al( 1.00)

     48 Sym. Ops., with inversion, found



   Cartesian axes

     site n.     atom                  positions (alat units)
         1           Al  tau(   1) = (   0.0000000   0.0000000   0.0000000  )

     number of k points=   118  Methfessel-Paxton smearing, width (Ry)=  0.0500

     Number of k-points >= 100: set verbosity='high' to print them.

     Dense  grid:      869 G-vectors     FFT dimensions: (  15,  15,  15)

     Largest allocated arrays     est. size (Mb)     dimensions
        Kohn-Sham Wavefunctions         0.01 Mb     (      60,    6)
        NL pseudopotentials             0.00 Mb     (      60,    4)
        Each V/rho on FFT grid          0.03 Mb     (    1800)
        Each G-vector array             0.00 Mb     (     435)
        G-vector shells                 0.00 Mb     (      31)
     Largest temporary arrays     est. size (Mb)     dimensions
        Auxiliary wavefunctions         0.02 Mb     (      60,   24)
        Each subspace H/S matrix        0.01 Mb     (      24,   24)
        Each <psi_i|beta_j> matrix      0.00 Mb     (       4,    6)

     The potential is recalculated from file :
     /home/nvarini/espresso_hdf5/espresso/tempdir/_ph0/al.save/charge-density.hdf5

     Starting wfc are    4 atomic +    2 random wfc

Possibly too few bands at point    1   0.00000   0.00000   0.00000

Possibly too few bands at point    2   1.00000   0.00000   0.00000

Possibly too few bands at point    3  -0.12500   0.12500  -0.12500

Possibly too few bands at point    4   0.87500   0.12500  -0.12500

Possibly too few bands at point    5  -0.25000   0.25000  -0.25000

Possibly too few bands at point    6   0.75000   0.25000  -0.25000

Possibly too few bands at point    7  -0.37500   0.37500  -0.37500

Possibly too few bands at point    8   0.62500   0.37500  -0.37500

Possibly too few bands at point    9   0.50000  -0.50000   0.50000

Possibly too few bands at point   10   1.50000  -0.50000   0.50000

Possibly too few bands at point   11   0.00000   0.25000   0.00000

Possibly too few bands at point   12   1.00000   0.25000   0.00000

Possibly too few bands at point   13  -0.12500   0.37500  -0.12500

Possibly too few bands at point   14   0.87500   0.37500  -0.12500

Possibly too few bands at point   15  -0.25000   0.50000  -0.25000

Possibly too few bands at point   16   0.75000   0.50000  -0.25000

Possibly too few bands at point   17   0.62500  -0.37500   0.62500

Possibly too few bands at point   18   1.62500  -0.37500   0.62500

Possibly too few bands at point   19   0.50000  -0.25000   0.50000

Possibly too few bands at point   20   1.50000  -0.25000   0.50000

Possibly too few bands at point   21   0.37500  -0.12500   0.37500

Possibly too few bands at point   22   1.37500  -0.12500   0.37500

Possibly too few bands at point   23   0.25000   0.00000   0.25000

Possibly too few bands at point   24   1.25000   0.00000   0.25000

Possibly too few bands at point   25   0.00000   0.50000   0.00000

Possibly too few bands at point   26   1.00000   0.50000   0.00000

Possibly too few bands at point   27  -0.12500   0.62500  -0.12500

Possibly too few bands at point   28   0.87500   0.62500  -0.12500

Possibly too few bands at point   29   0.75000  -0.25000   0.75000

Possibly too few bands at point   30   1.75000  -0.25000   0.75000

Possibly too few bands at point   31   0.62500  -0.12500   0.62500

Possibly too few bands at point   32   1.62500  -0.12500   0.62500

Possibly too few bands at point   33   0.50000   0.00000   0.50000

Possibly too few bands at point   34   1.50000   0.00000   0.50000

Possibly too few bands at point   35   0.00000   0.75000   0.00000

Possibly too few bands at point   36   1.00000   0.75000   0.00000

Possibly too few bands at point   37   0.87500  -0.12500   0.87500

Possibly too few bands at point   38   1.87500  -0.12500   0.87500

Possibly too few bands at point   39   0.75000   0.00000   0.75000

Possibly too few bands at point   40   1.75000   0.00000   0.75000

Possibly too few bands at point   41   0.00000  -1.00000   0.00000

Possibly too few bands at point   42   1.00000  -1.00000   0.00000

Possibly too few bands at point   43  -0.25000   0.50000   0.00000

Possibly too few bands at point   44   0.75000   0.50000   0.00000

Possibly too few bands at point   45   0.62500  -0.37500   0.87500

Possibly too few bands at point   46   1.62500  -0.37500   0.87500

Possibly too few bands at point   47   0.50000  -0.25000   0.75000

Possibly too few bands at point   48   1.50000  -0.25000   0.75000

Possibly too few bands at point   49   0.75000  -0.25000   1.00000

Possibly too few bands at point   50   1.75000  -0.25000   1.00000

Possibly too few bands at point   51   0.62500  -0.12500   0.87500

Possibly too few bands at point   52   1.62500  -0.12500   0.87500

Possibly too few bands at point   53   0.50000   0.00000   0.75000

Possibly too few bands at point   54   1.50000   0.00000   0.75000

Possibly too few bands at point   55  -0.25000  -1.00000   0.00000

Possibly too few bands at point   56   0.75000  -1.00000   0.00000

Possibly too few bands at point   57  -0.50000  -1.00000   0.00000

Possibly too few bands at point   58   0.50000  -1.00000   0.00000

Possibly too few bands at point   59  -0.25000   0.00000   0.00000

Possibly too few bands at point   60   0.75000   0.00000   0.00000

Possibly too few bands at point   61  -0.37500  -0.12500   0.12500

Possibly too few bands at point   62   0.62500  -0.12500   0.12500

Possibly too few bands at point   63  -0.50000  -0.25000   0.25000

Possibly too few bands at point   64   0.50000  -0.25000   0.25000

Possibly too few bands at point   65   0.37500   0.62500  -0.62500

Possibly too few bands at point   66   1.37500   0.62500  -0.62500

Possibly too few bands at point   67   0.25000   0.50000  -0.50000

Possibly too few bands at point   68   1.25000   0.50000  -0.50000

Possibly too few bands at point   69   0.12500   0.37500  -0.37500

Possibly too few bands at point   70   1.12500   0.37500  -0.37500

Possibly too few bands at point   71   0.00000   0.25000  -0.25000

Possibly too few bands at point   72   1.00000   0.25000  -0.25000

Possibly too few bands at point   73  -0.50000   0.00000   0.00000

Possibly too few bands at point   74   0.50000   0.00000   0.00000

Possibly too few bands at point   75  -0.62500  -0.12500   0.12500

Possibly too few bands at point   76   0.37500  -0.12500   0.12500

Possibly too few bands at point   77   0.25000   0.75000  -0.75000

Possibly too few bands at point   78   1.25000   0.75000  -0.75000

Possibly too few bands at point   79   0.12500   0.62500  -0.62500

Possibly too few bands at point   80   1.12500   0.62500  -0.62500

Possibly too few bands at point   81   0.00000   0.50000  -0.50000

Possibly too few bands at point   82   1.00000   0.50000  -0.50000

Possibly too few bands at point   83  -0.75000   0.00000   0.00000

Possibly too few bands at point   84   0.25000   0.00000   0.00000

Possibly too few bands at point   85   0.12500   0.87500  -0.87500

Possibly too few bands at point   86   1.12500   0.87500  -0.87500

Possibly too few bands at point   87   0.00000   0.75000  -0.75000

Possibly too few bands at point   88   1.00000   0.75000  -0.75000

Possibly too few bands at point   89   1.00000   0.00000   0.00000

Possibly too few bands at point   90   2.00000   0.00000   0.00000

Possibly too few bands at point   91   0.00000  -0.50000   0.25000

Possibly too few bands at point   92   1.00000  -0.50000   0.25000

Possibly too few bands at point   93  -0.50000   0.00000   0.25000

Possibly too few bands at point   94   0.50000   0.00000   0.25000

Possibly too few bands at point   95  -0.87500   0.37500  -0.62500

Possibly too few bands at point   96   0.12500   0.37500  -0.62500

Possibly too few bands at point   97   0.37500   0.87500  -0.62500

Possibly too few bands at point   98   1.37500   0.87500  -0.62500

Possibly too few bands at point   99  -0.75000   0.25000  -0.50000

Possibly too few bands at point  100   0.25000   0.25000  -0.50000

Possibly too few bands at point  101  -1.00000   0.25000  -0.75000

Possibly too few bands at point  102   0.00000   0.25000  -0.75000

Possibly too few bands at point  103   0.25000   1.00000  -0.75000

Possibly too few bands at point  104   1.25000   1.00000  -0.75000

Possibly too few bands at point  105  -0.87500   0.12500  -0.62500

Possibly too few bands at point  106   0.12500   0.12500  -0.62500

Possibly too few bands at point  107   0.12500   0.87500  -0.62500

Possibly too few bands at point  108   1.12500   0.87500  -0.62500

Possibly too few bands at point  109  -0.75000   0.00000  -0.50000

Possibly too few bands at point  110   0.25000   0.00000  -0.50000

Possibly too few bands at point  111   0.00000   0.75000  -0.50000

Possibly too few bands at point  112   1.00000   0.75000  -0.50000

Possibly too few bands at point  113   0.00000   1.00000   0.25000

Possibly too few bands at point  114   1.00000   1.00000   0.25000

Possibly too few bands at point  115   1.00000   0.00000   0.25000

Possibly too few bands at point  116   2.00000   0.00000   0.25000

Possibly too few bands at point  117   0.00000   1.00000   0.50000

Possibly too few bands at point  118   1.00000   1.00000   0.50000

                                                                                

     bravais-lattice index     =            2
     lattice parameter (alat)  =       7.5000  a.u.
     unit-cell volume          =     105.4688 (a.u.)^3
     number of atoms/cell      =            1
     number of atomic types    =            1
     kinetic-energy cut-off    =      15.0000  Ry
     charge density cut-off    =      60.0000  Ry
     convergence threshold     =      1.0E-10
     beta                      =       0.7000
     number of iterations used =            4
     Exchange-correlation      =  SLA  PZ   NOGX NOGC ( 1  1  0  0 0 0)


     celldm(1)=    7.50000  celldm(2)=    0.00000  celldm(3)=    0.00000
     celldm(4)=    0.00000  celldm(5)=    0.00000  celldm(6)=    0.00000

     crystal axes: (cart. coord. in units of alat)
               a(1) = ( -0.5000  0.0000  0.5000 )  
               a(2) = (  0.0000  0.5000  0.5000 )  
               a(3) = ( -0.5000  0.5000  0.0000 )  

     reciprocal axes: (cart. coord. in units 2 pi/alat)
               b(1) = ( -1.0000 -1.0000  1.0000 )  
               b(2) = (  1.0000  1.0000  1.0000 )  
               b(3) = ( -1.0000  1.0000 -1.0000 )  


     Atoms inside the unit cell: 

     Cartesian axes

     site n.  atom      mass           positions (alat units)
        1     Al  26.9800   tau(    1) = (    0.00000    0.00000    0.00000  )

     Computing dynamical matrix for 
                    q = (   1.0000000   0.0000000   0.0000000 )
 
     17 Sym.Ops. (with q -> -q+G )


     G cutoff =   85.4897  (    435 G-vectors)     FFT grid: ( 15, 15, 15)

     number of k points=   118  Methfessel-Paxton smearing, width (Ry)=  0.0500

     PseudoPot. # 1 for Al read from file:
     /home/nvarini/espresso_hdf5/espresso/pseudo/Al.pz-vbc.UPF
     MD5 check sum: 614279c88ff8d45c90147292d03ed420
     Pseudo is Norm-conserving, Zval =  3.0
[...]
     Exchange-correlation      =  SLA  PZ   NOGX NOGC ( 1  1  0  0 0 0)


     celldm(1)=    7.50000  celldm(2)=    0.00000  celldm(3)=    0.00000
     celldm(4)=    0.00000  celldm(5)=    0.00000  celldm(6)=    0.00000

     crystal axes: (cart. coord. in units of alat)
               a(1) = ( -0.5000  0.0000  0.5000 )  
               a(2) = (  0.0000  0.5000  0.5000 )  
               a(3) = ( -0.5000  0.5000  0.0000 )  

     reciprocal axes: (cart. coord. in units 2 pi/alat)
               b(1) = ( -1.0000 -1.0000  1.0000 )  
               b(2) = (  1.0000  1.0000  1.0000 )  
               b(3) = ( -1.0000  1.0000 -1.0000 )  


     Atoms inside the unit cell: 

     Cartesian axes

     site n.  atom      mass           positions (alat units)
        1     Al  26.9800   tau(    1) = (    0.00000    0.00000    0.00000  )

     Computing dynamical matrix for 
                    q = (   0.3750000   0.3750000   0.3750000 )
 
      6 Sym.Ops. (no q -> -q+G )


     G cutoff =   85.4897  (    435 G-vectors)     FFT grid: ( 15, 15, 15)

     number of k points=   240  Methfessel-Paxton smearing, width (Ry)=  0.0500

     PseudoPot. # 1 for Al read from file:
     /home/nvarini/espresso_hdf5/espresso/pseudo/Al.pz-vbc.UPF
     MD5 check sum: 614279c88ff8d45c90147292d03ed420
     Pseudo is Norm-conserving, Zval =  3.0
     Generated by new atomic code, or converted to UPF format
     Using radial grid of  171 points,  2 beta functions with: 
                l(1) =   0
                l(2) =   1

     Mode symmetry, C_3v (3m)   point group:


     Atomic displacements:
     There are   2 irreducible representations

     Representation     1      1 modes -A_1  L_1  Done

     Representation     2      2 modes -E    L_3  Done


     PHONON       :     4.39s CPU         4.42s WALL

 
     Number of q in the star =    8
     List of q in the star:
          1   0.375000000   0.375000000   0.375000000
          2  -0.375000000   0.375000000  -0.375000000
          3   0.375000000  -0.375000000  -0.375000000
          4   0.375000000  -0.375000000   0.375000000
          5  -0.375000000   0.375000000   0.375000000
          6  -0.375000000  -0.375000000  -0.375000000
          7  -0.375000000  -0.375000000   0.375000000
          8   0.375000000   0.375000000  -0.375000000

     Diagonalizing the dynamical matrix

     q = (    0.375000000   0.375000000   0.375000000 ) 

 **************************************************************************
     freq (    1) =       4.382402 [THz] =     146.181208 [cm-1]
     freq (    2) =       4.382402 [THz] =     146.181208 [cm-1]
     freq (    3) =       8.633880 [THz] =     287.995229 [cm-1]
 **************************************************************************

     Mode symmetry, C_3v (3m)   point group:

     freq (  1 -  2) =        146.2  [cm-1]   --> E    L_3           
     freq (  3 -  3) =        288.0  [cm-1]   --> A_1  L_1           

     Calculation of q =    0.5000000   0.5000000   0.5000000
 
     Parallelization info
     --------------------
     sticks:   dense  smooth     PW     G-vecs:    dense   smooth      PW
     Min          60      60     30                  434      434     153
     Max          61      61     31                  435      435     154
     Sum         121     121     61                  869      869     307
 


     bravais-lattice index     =            2
     lattice parameter (alat)  =       7.5000  a.u.
     unit-cell volume          =     105.4688 (a.u.)^3
     number of atoms/cell      =            1
     number of atomic types    =            1
     number of electrons       =         3.00
     number of Kohn-Sham states=            6
     kinetic-energy cutoff     =      15.0000  Ry
     charge density cutoff     =      60.0000  Ry
     Exchange-correlation      =  SLA  PZ   NOGX NOGC ( 1  1  0  0 0 0)

     celldm(1)=   7.500000  celldm(2)=   0.000000  celldm(3)=   0.000000
     celldm(4)=   0.000000  celldm(5)=   0.000000  celldm(6)=   0.000000

     crystal axes: (cart. coord. in units of alat)
               a(1) = (  -0.500000   0.000000   0.500000 )  
               a(2) = (   0.000000   0.500000   0.500000 )  
               a(3) = (  -0.500000   0.500000   0.000000 )  

     reciprocal axes: (cart. coord. in units 2 pi/alat)
               b(1) = ( -1.000000 -1.000000  1.000000 )  
               b(2) = (  1.000000  1.000000  1.000000 )  
               b(3) = ( -1.000000  1.000000 -1.000000 )  


     PseudoPot. # 1 for Al read from file:
     /home/nvarini/espresso_hdf5/espresso/pseudo/Al.pz-vbc.UPF
     MD5 check sum: 614279c88ff8d45c90147292d03ed420
     Pseudo is Norm-conserving, Zval =  3.0
     Generated by new atomic code, or converted to UPF format
     Using radial grid of  171 points,  2 beta functions with: 
                l(1) =   0
                l(2) =   1

     atomic species   valence    mass     pseudopotential
        Al             3.00    26.98000     Al( 1.00)

     48 Sym. Ops., with inversion, found



   Cartesian axes

     site n.     atom                  positions (alat units)
         1           Al  tau(   1) = (   0.0000000   0.0000000   0.0000000  )

     number of k points=   130  Methfessel-Paxton smearing, width (Ry)=  0.0500

     Number of k-points >= 100: set verbosity='high' to print them.

     Dense  grid:      869 G-vectors     FFT dimensions: (  15,  15,  15)

     Largest allocated arrays     est. size (Mb)     dimensions
        Kohn-Sham Wavefunctions         0.01 Mb     (      56,    6)
        NL pseudopotentials             0.00 Mb     (      56,    4)
        Each V/rho on FFT grid          0.03 Mb     (    1800)
        Each G-vector array             0.00 Mb     (     435)
        G-vector shells                 0.00 Mb     (      31)
     Largest temporary arrays     est. size (Mb)     dimensions
        Auxiliary wavefunctions         0.02 Mb     (      56,   24)
        Each subspace H/S matrix        0.01 Mb     (      24,   24)
        Each <psi_i|beta_j> matrix      0.00 Mb     (       4,    6)

     The potential is recalculated from file :
     /home/nvarini/espresso_hdf5/espresso/tempdir/_ph0/al.save/charge-density.hdf5

     Starting wfc are    4 atomic +    2 random wfc

Possibly too few bands at point    1   0.00000   0.00000   0.00000

Possibly too few bands at point    2   0.50000   0.50000   0.50000

Possibly too few bands at point    3  -0.12500   0.12500  -0.12500

Possibly too few bands at point    4   0.37500   0.62500   0.37500

Possibly too few bands at point    5  -0.25000   0.25000  -0.25000

Possibly too few bands at point    6   0.25000   0.75000   0.25000

Possibly too few bands at point    7  -0.37500   0.37500  -0.37500

Possibly too few bands at point    8   0.12500   0.87500   0.12500

Possibly too few bands at point    9   0.50000  -0.50000   0.50000

Possibly too few bands at point   10   1.00000   0.00000   1.00000

Possibly too few bands at point   11   0.00000   0.25000   0.00000

Possibly too few bands at point   12   0.50000   0.75000   0.50000

Possibly too few bands at point   13  -0.12500   0.37500  -0.12500

Possibly too few bands at point   14   0.37500   0.87500   0.37500

Possibly too few bands at point   15  -0.25000   0.50000  -0.25000

Possibly too few bands at point   16   0.25000   1.00000   0.25000

Possibly too few bands at point   17   0.62500  -0.37500   0.62500

Possibly too few bands at point   18   1.12500   0.12500   1.12500

Possibly too few bands at point   19   0.50000  -0.25000   0.50000

Possibly too few bands at point   20   1.00000   0.25000   1.00000

Possibly too few bands at point   21   0.37500  -0.12500   0.37500

Possibly too few bands at point   22   0.87500   0.37500   0.87500

Possibly too few bands at point   23   0.25000   0.00000   0.25000

Possibly too few bands at point   24   0.75000   0.50000   0.75000

Possibly too few bands at point   25   0.00000   0.50000   0.00000

Possibly too few bands at point   26   0.50000   1.00000   0.50000

Possibly too few bands at point   27  -0.12500   0.62500  -0.12500

Possibly too few bands at point   28   0.37500   1.12500   0.37500

Possibly too few bands at point   29   0.75000  -0.25000   0.75000

Possibly too few bands at point   30   1.25000   0.25000   1.25000

Possibly too few bands at point   31   0.62500  -0.12500   0.62500

Possibly too few bands at point   32   1.12500   0.37500   1.12500

Possibly too few bands at point   33   0.50000   0.00000   0.50000

Possibly too few bands at point   34   1.00000   0.50000   1.00000

Possibly too few bands at point   35   0.00000   0.75000   0.00000

Possibly too few bands at point   36   0.50000   1.25000   0.50000

Possibly too few bands at point   37   0.87500  -0.12500   0.87500

Possibly too few bands at point   38   1.37500   0.37500   1.37500

Possibly too few bands at point   39   0.75000   0.00000   0.75000

Possibly too few bands at point   40   1.25000   0.50000   1.25000

Possibly too few bands at point   41   0.00000  -1.00000   0.00000

Possibly too few bands at point   42   0.50000  -0.50000   0.50000

Possibly too few bands at point   43  -0.25000   0.50000   0.00000

Possibly too few bands at point   44   0.25000   1.00000   0.50000

Possibly too few bands at point   45   0.62500  -0.37500   0.87500

Possibly too few bands at point   46   1.12500   0.12500   1.37500

Possibly too few bands at point   47   0.50000  -0.25000   0.75000

Possibly too few bands at point   48   1.00000   0.25000   1.25000

Possibly too few bands at point   49   0.75000  -0.25000   1.00000

Possibly too few bands at point   50   1.25000   0.25000   1.50000

Possibly too few bands at point   51   0.62500  -0.12500   0.87500

Possibly too few bands at point   52   1.12500   0.37500   1.37500

Possibly too few bands at point   53   0.50000   0.00000   0.75000

Possibly too few bands at point   54   1.00000   0.50000   1.25000

Possibly too few bands at point   55  -0.25000  -1.00000   0.00000

Possibly too few bands at point   56   0.25000  -0.50000   0.50000

Possibly too few bands at point   57  -0.50000  -1.00000   0.00000

Possibly too few bands at point   58   0.00000  -0.50000   0.50000

Possibly too few bands at point   59   0.12500   0.12500   0.12500

Possibly too few bands at point   60   0.62500   0.62500   0.62500

Possibly too few bands at point   61   0.25000   0.25000   0.25000

Possibly too few bands at point   62   0.75000   0.75000   0.75000

Possibly too few bands at point   63   0.37500   0.37500   0.37500

Possibly too few bands at point   64   0.87500   0.87500   0.87500

Possibly too few bands at point   65  -0.50000  -0.50000  -0.50000

Possibly too few bands at point   66   0.00000   0.00000   0.00000

Possibly too few bands at point   67   0.37500   0.12500   0.12500

Possibly too few bands at point   68   0.87500   0.62500   0.62500

Possibly too few bands at point   69   0.37500   0.12500  -0.12500

Possibly too few bands at point   70   0.87500   0.62500   0.37500

Possibly too few bands at point   71   0.50000   0.25000   0.25000

Possibly too few bands at point   72   1.00000   0.75000   0.75000

Possibly too few bands at point   73   0.50000   0.25000  -0.25000

Possibly too few bands at point   74   1.00000   0.75000   0.25000

Possibly too few bands at point   75  -0.37500  -0.62500  -0.62500

Possibly too few bands at point   76   0.12500  -0.12500  -0.12500

Possibly too few bands at point   77  -0.37500  -0.62500   0.62500

Possibly too few bands at point   78   0.12500  -0.12500   1.12500

Possibly too few bands at point   79  -0.25000  -0.50000  -0.50000

Possibly too few bands at point   80   0.25000   0.00000   0.00000

Possibly too few bands at point   81  -0.25000  -0.50000   0.50000

Possibly too few bands at point   82   0.25000   0.00000   1.00000

Possibly too few bands at point   83  -0.12500  -0.37500  -0.37500

Possibly too few bands at point   84   0.37500   0.12500   0.12500

Possibly too few bands at point   85  -0.12500  -0.37500   0.37500

Possibly too few bands at point   86   0.37500   0.12500   0.87500

Possibly too few bands at point   87   0.00000  -0.25000   0.25000

Possibly too few bands at point   88   0.50000   0.25000   0.75000

Possibly too few bands at point   89   0.62500   0.12500   0.12500

Possibly too few bands at point   90   1.12500   0.62500   0.62500

Possibly too few bands at point   91   0.62500   0.12500  -0.12500

Possibly too few bands at point   92   1.12500   0.62500   0.37500

Possibly too few bands at point   93  -0.25000  -0.75000  -0.75000

Possibly too few bands at point   94   0.25000  -0.25000  -0.25000

Possibly too few bands at point   95  -0.25000  -0.75000   0.75000

Possibly too few bands at point   96   0.25000  -0.25000   1.25000

Possibly too few bands at point   97  -0.12500  -0.62500  -0.62500

Possibly too few bands at point   98   0.37500  -0.12500  -0.12500

Possibly too few bands at point   99  -0.12500  -0.62500   0.62500

Possibly too few bands at point  100   0.37500  -0.12500   1.12500

Possibly too few bands at point  101   0.00000  -0.50000   0.50000

Possibly too few bands at point  102   0.50000   0.00000   1.00000

Possibly too few bands at point  103  -0.12500  -0.87500  -0.87500

Possibly too few bands at point  104   0.37500  -0.37500  -0.37500

Possibly too few bands at point  105  -0.12500  -0.87500   0.87500

Possibly too few bands at point  106   0.37500  -0.37500   1.37500

Possibly too few bands at point  107   0.00000  -0.75000   0.75000

Possibly too few bands at point  108   0.50000  -0.25000   1.25000

Possibly too few bands at point  109   0.50000   0.25000   0.00000

Possibly too few bands at point  110   1.00000   0.75000   0.50000

Possibly too few bands at point  111  -0.37500  -0.62500  -0.87500

Possibly too few bands at point  112   0.12500  -0.12500  -0.37500

Possibly too few bands at point  113  -0.37500  -0.62500   0.87500

Possibly too few bands at point  114   0.12500  -0.12500   1.37500

Possibly too few bands at point  115   0.37500  -0.62500   0.87500

Possibly too few bands at point  116   0.87500  -0.12500   1.37500

Possibly too few bands at point  117  -0.25000  -0.50000  -0.75000

Possibly too few bands at point  118   0.25000   0.00000  -0.25000

Possibly too few bands at point  119   0.25000  -0.50000   0.75000

Possibly too few bands at point  120   0.75000   0.00000   1.25000

Possibly too few bands at point  121  -0.25000  -0.75000  -1.00000

Possibly too few bands at point  122   0.25000  -0.25000  -0.50000

Possibly too few bands at point  123  -0.12500  -0.62500  -0.87500

Possibly too few bands at point  124   0.37500  -0.12500  -0.37500

Possibly too few bands at point  125  -0.12500  -0.62500   0.87500

Possibly too few bands at point  126   0.37500  -0.12500   1.37500

Possibly too few bands at point  127   0.12500  -0.62500   0.87500

Possibly too few bands at point  128   0.62500  -0.12500   1.37500

Possibly too few bands at point  129   0.00000  -0.50000   0.75000

Possibly too few bands at point  130   0.50000   0.00000   1.25000

                                                                                

     bravais-lattice index     =            2
     lattice parameter (alat)  =       7.5000  a.u.
     unit-cell volume          =     105.4688 (a.u.)^3
     number of atoms/cell      =            1
     number of atomic types    =            1
     kinetic-energy cut-off    =      15.0000  Ry
     charge density cut-off    =      60.0000  Ry
     convergence threshold     =      1.0E-10
     beta                      =       0.7000
     number of iterations used =            4
     Exchange-correlation      =  SLA  PZ   NOGX NOGC ( 1  1  0  0 0 0)


     celldm(1)=    7.50000  celldm(2)=    0.00000  celldm(3)=    0.00000
     celldm(4)=    0.00000  celldm(5)=    0.00000  celldm(6)=    0.00000

     crystal axes: (cart. coord. in units of alat)
               a(1) = ( -0.5000  0.0000  0.5000 )  
               a(2) = (  0.0000  0.5000  0.5000 )  
               a(3) = ( -0.5000  0.5000  0.0000 )  

     reciprocal axes: (cart. coord. in units 2 pi/alat)
               b(1) = ( -1.0000 -1.0000  1.0000 )  
               b(2) = (  1.0000  1.0000  1.0000 )  
               b(3) = ( -1.0000  1.0000 -1.0000 )  


     Atoms inside the unit cell: 

     Cartesian axes

     site n.  atom      mass           positions (alat units)
        1     Al  26.9800   tau(    1) = (    0.00000    0.00000    0.00000  )

     Computing dynamical matrix for 
                    q = (   0.5000000   0.5000000   0.5000000 )
 
     13 Sym.Ops. (with q -> -q+G )


     G cutoff =   85.4897  (    435 G-vectors)     FFT grid: ( 15, 15, 15)

     number of k points=   130  Methfessel-Paxton smearing, width (Ry)=  0.0500

     PseudoPot. # 1 for Al read from file:
     /home/nvarini/espresso_hdf5/espresso/pseudo/Al.pz-vbc.UPF
     MD5 check sum: 614279c88ff8d45c90147292d03ed420
     Pseudo is Norm-conserving, Zval =  3.0
     Generated by new atomic code, or converted to UPF format
     Using radial grid of  171 points,  2 beta functions with: 
                l(1) =   0
                l(2) =   1

     Mode symmetry, D_3d (-3m)  point group:


     Atomic displacements:
     There are   2 irreducible representations

     Representation     1      1 modes -A_2u L_2'  Done

     Representation     2      2 modes -E_u  L_3'  Done


     PHONON       :     4.41s CPU         4.43s WALL

 
     Number of q in the star =    4
     List of q in the star:
          1   0.500000000   0.500000000   0.500000000
          2   0.500000000  -0.500000000  -0.500000000
          3   0.500000000  -0.500000000   0.500000000
          4  -0.500000000  -0.500000000   0.500000000

     Diagonalizing the dynamical matrix

     q = (    0.500000000   0.500000000   0.500000000 ) 

 **************************************************************************
     freq (    1) =       4.482966 [THz] =     149.535661 [cm-1]
     freq (    2) =       4.482966 [THz] =     149.535661 [cm-1]
     freq (    3) =       9.371109 [THz] =     312.586542 [cm-1]
 **************************************************************************

     Mode symmetry, D_3d (-3m)  point group:

     freq (  1 -  2) =        149.5  [cm-1]   --> E_u  L_3'          
     freq (  3 -  3) =        312.6  [cm-1]   --> A_2u L_2'          
 
     init_run     :      0.11s CPU      0.11s WALL (      15 calls)

     Called by init_run:
     wfcinit      :      0.00s CPU      0.00s WALL (      15 calls)
     potinit      :      0.02s CPU      0.02s WALL (      15 calls)

     Called by electrons:
     v_of_rho     :      0.00s CPU      0.00s WALL (      17 calls)

     Called by c_bands:

     Called by sum_band:

     Called by *egterg:

     Called by h_psi:

     General routines
     fft          :      0.00s CPU      0.00s WALL (      51 calls)
 
     Parallel routines
     fft_scatter  :      0.00s CPU      0.00s WALL (      51 calls)
 
     PHONON       :     4.41s CPU         4.44s WALL

     INITIALIZATION: 
     phq_setup    :      0.07s CPU      0.07s WALL (      17 calls)
 
     init_vloc    :      0.00s CPU      0.00s WALL (      17 calls)
     init_us_1    :      0.03s CPU      0.03s WALL (      17 calls)
 
     DYNAMICAL MATRIX:
     phqscf       :      0.00s CPU      0.00s WALL (      17 calls)
     dynmatrix    :      0.03s CPU      0.03s WALL (      17 calls)
 
     phqscf       :      0.00s CPU      0.00s WALL (      17 calls)
 
 
 
     phqscf       :      0.00s CPU      0.00s WALL (      17 calls)
 
 
 
 
 
 
 
 
      General routines
     fft          :      0.00s CPU      0.00s WALL (      51 calls)
 
 
     PHONON       :     4.41s CPU         4.44s WALL

 
   This run was terminated on:  16:35:23  21Jul2016            

=------------------------------------------------------------------------------=
   JOB DONE.
=------------------------------------------------------------------------------=
