
     Program PHONON v.5.4.0 (svn rev. 12620M) starts on 28Jul2016 at 11:48:25 

     This program is part of the open-source Quantum ESPRESSO suite
     for quantum simulation of materials; please cite
         "P. Giannozzi et al., J. Phys.:Condens. Matter 21 395502 (2009);
          URL http://www.quantum-espresso.org", 
     in publications or presentations arising from this work. More details at
     http://www.quantum-espresso.org/quote
 
           HOST :    x86_64-pc-linux-gnu
           ARCH :    x86_64
             CC :    icc
            CPP :    cpp
            F90 :    ifort
            F77 :    ifort
         DFLAGS :    -D__INTEL -D__FFTW -D__MPI -D__PARA -D__HDF5
      BLAS LIBS :    -lmkl_intel_lp64  -lmkl_sequential -lmkl_core
    LAPACK LIBS :    
       FFT LIBS :    
      MASS LIBS :    

     Parallel version (MPI), running on     4 processors
     path-images division:  nimage    =       2
     R & G space division:  proc/nbgrp/npool/nimage =       2


     Dynamical matrices for q-points given in input
     (  17q-points):
       N         xq(1)         xq(2)         xq(3) 
       1   0.000000000   0.000000000   0.000000000
       2   0.250000000   0.000000000   0.000000000
       3   0.500000000   0.000000000   0.000000000
       4   0.750000000   0.000000000   0.000000000
       5   1.000000000   0.000000000   0.000000000
       6   1.000000000   0.250000000   0.000000000
       7   1.000000000   0.500000000   0.000000000
       8   1.000000000   0.750000000   0.000000000
       9   1.000000000   1.000000000   0.000000000
      10   0.750000000   0.750000000   0.000000000
      11   0.500000000   0.500000000   0.000000000
      12   0.250000000   0.250000000   0.000000000
      13   0.000000000   0.000000000   0.000000000
      14   0.125000000   0.125000000   0.125000000
      15   0.250000000   0.250000000   0.250000000
      16   0.375000000   0.375000000   0.375000000
      17   0.500000000   0.500000000   0.500000000

     Reading data from directory:
     /home/nvarini/espresso_hdf5/espresso/tempdir/al.save

   Info: using nr1, nr2, nr3 values from input

   Info: using nr1, nr2, nr3 values from input

     IMPORTANT: XC functional enforced from input :
     Exchange-correlation      =  SLA  PZ   NOGX NOGC ( 1  1  0  0 0 0)
     Any further DFT definition will be discarded
     Please, verify this is what you really want

 
     Parallelization info
     --------------------
     sticks:   dense  smooth     PW     G-vecs:    dense   smooth      PW
     Min          60      60     21                  434      434      90
     Max          61      61     22                  435      435      91
     Sum         121     121     43                  869      869     181
 

      Image parallelization. There are  2 images and    37 representations
      The estimated total work is   480 self-consistent (scf) runs
      I am image number     0 and my work is about  244 scf runs. I calculate: 
      q point number     1, representations:
       0 1
      q point number     2, representations:
       0 1 2
      q point number     3, representations:
       0 1 2
      q point number     4, representations:
       0 1 2
      q point number     5, representations:
       0 1 2
      q point number     6, representations:
       0 1 2 3
      q point number     7, representations:
       0 1 2
      q point number     8, representations:
       0 1 2 3
      q point number     9, representations:
       0 1 2
      q point number    10, representations:
       0 1

     Calculation of q =    0.0000000   0.0000000   0.0000000

                                                                                

     bravais-lattice index     =            2
     lattice parameter (alat)  =       7.5000  a.u.
     unit-cell volume          =     105.4688 (a.u.)^3
     number of atoms/cell      =            1
     number of atomic types    =            1
     kinetic-energy cut-off    =      15.0000  Ry
     charge density cut-off    =      60.0000  Ry
     convergence threshold     =      1.0E-10
     beta                      =       0.7000
     number of iterations used =            4
     Exchange-correlation      =  SLA  PZ   NOGX NOGC ( 1  1  0  0 0 0)


     celldm(1)=    7.50000  celldm(2)=    0.00000  celldm(3)=    0.00000
     celldm(4)=    0.00000  celldm(5)=    0.00000  celldm(6)=    0.00000

     crystal axes: (cart. coord. in units of alat)
               a(1) = ( -0.5000  0.0000  0.5000 )  
               a(2) = (  0.0000  0.5000  0.5000 )  
               a(3) = ( -0.5000  0.5000  0.0000 )  

     reciprocal axes: (cart. coord. in units 2 pi/alat)
               b(1) = ( -1.0000 -1.0000  1.0000 )  
               b(2) = (  1.0000  1.0000  1.0000 )  
               b(3) = ( -1.0000  1.0000 -1.0000 )  


     Atoms inside the unit cell: 

     Cartesian axes

     site n.  atom      mass           positions (alat units)
        1     Al  26.9800   tau(    1) = (    0.00000    0.00000    0.00000  )

     Computing dynamical matrix for 
                    q = (   0.0000000   0.0000000   0.0000000 )
 
     49 Sym.Ops. (with q -> -q+G )


     G cutoff =   85.4897  (    435 G-vectors)     FFT grid: ( 15, 15, 15)

     number of k points=    29  Methfessel-Paxton smearing, width (Ry)=  0.0500

     PseudoPot. # 1 for Al read from file:
     /home/nvarini/espresso_hdf5/espresso/pseudo/Al.pz-vbc.UPF
     MD5 check sum: 614279c88ff8d45c90147292d03ed420
     Pseudo is Norm-conserving, Zval =  3.0
     Generated by new atomic code, or converted to UPF format
     Using radial grid of  171 points,  2 beta functions with: 
                l(1) =   0
                l(2) =   1

     Mode symmetry, O_h (m-3m)  point group:


     Atomic displacements:
     There are   1 irreducible representations

     Representation     1      3 modes -T_1u G_15  G_4-  To be done



     Alpha used in Ewald sum =   0.7000
     PHONON       :     0.69s CPU         0.71s WALL



     Representation #  1 modes #   1  2  3

     Self-consistent Calculation
 
     Pert. #  1: Fermi energy shift (Ry) =     2.2058E-24    -9.4040E-38
     Pert. #  2: Fermi energy shift (Ry) =     1.4476E-23    -2.5077E-37
     Pert. #  3: Fermi energy shift (Ry) =    -5.5145E-24    -1.8808E-37

      iter #   1 total cpu time :     0.9 secs   av.it.:   3.3
      thresh= 1.000E-02 alpha_mix =  0.700 |ddv_scf|^2 =  1.260E-08
 
     Pert. #  1: Fermi energy shift (Ry) =     3.3087E-24    -1.2245E-40
     Pert. #  2: Fermi energy shift (Ry) =     2.4126E-24    -3.0612E-40
     Pert. #  3: Fermi energy shift (Ry) =     4.4116E-24     1.8367E-40

      iter #   2 total cpu time :     1.0 secs   av.it.:   5.8
      thresh= 1.123E-05 alpha_mix =  0.700 |ddv_scf|^2 =  1.307E-09
 
     Pert. #  1: Fermi energy shift (Ry) =    -4.4116E-24     1.2245E-40
     Pert. #  2: Fermi energy shift (Ry) =    -1.2063E-23     2.1122E-39
     Pert. #  3: Fermi energy shift (Ry) =     6.0660E-24     7.3468E-40

      iter #   3 total cpu time :     1.1 secs   av.it.:   5.4
      thresh= 3.615E-06 alpha_mix =  0.700 |ddv_scf|^2 =  1.656E-13

     End of self-consistent calculation

     Convergence has been achieved 
 
     Number of q in the star =    1
     List of q in the star:
          1   0.000000000   0.000000000   0.000000000

     Diagonalizing the dynamical matrix

     q = (    0.000000000   0.000000000   0.000000000 ) 

 **************************************************************************
     freq (    1) =       0.187691 [THz] =       6.260705 [cm-1]
     freq (    2) =       0.187691 [THz] =       6.260705 [cm-1]
     freq (    3) =       0.187691 [THz] =       6.260705 [cm-1]
 **************************************************************************

     Mode symmetry, O_h (m-3m)  point group:

     freq (  1 -  3) =          6.3  [cm-1]   --> T_1u G_15  G_4- I  

     Calculation of q =    0.2500000   0.0000000   0.0000000
 
     Parallelization info
     --------------------
     sticks:   dense  smooth     PW     G-vecs:    dense   smooth      PW
     Min          60      60     27                  434      434     129
     Max          61      61     28                  435      435     130
     Sum         121     121     55                  869      869     259
 


     bravais-lattice index     =            2
     lattice parameter (alat)  =       7.5000  a.u.
     unit-cell volume          =     105.4688 (a.u.)^3
     number of atoms/cell      =            1
     number of atomic types    =            1
     number of electrons       =         3.00
     number of Kohn-Sham states=            6
     kinetic-energy cutoff     =      15.0000  Ry
     charge density cutoff     =      60.0000  Ry
     Exchange-correlation      =  SLA  PZ   NOGX NOGC ( 1  1  0  0 0 0)

     celldm(1)=   7.500000  celldm(2)=   0.000000  celldm(3)=   0.000000
     celldm(4)=   0.000000  celldm(5)=   0.000000  celldm(6)=   0.000000

     crystal axes: (cart. coord. in units of alat)
               a(1) = (  -0.500000   0.000000   0.500000 )  
               a(2) = (   0.000000   0.500000   0.500000 )  
               a(3) = (  -0.500000   0.500000   0.000000 )  

     reciprocal axes: (cart. coord. in units 2 pi/alat)
               b(1) = ( -1.000000 -1.000000  1.000000 )  
               b(2) = (  1.000000  1.000000  1.000000 )  
               b(3) = ( -1.000000  1.000000 -1.000000 )  


     PseudoPot. # 1 for Al read from file:
     /home/nvarini/espresso_hdf5/espresso/pseudo/Al.pz-vbc.UPF
     MD5 check sum: 614279c88ff8d45c90147292d03ed420
     Pseudo is Norm-conserving, Zval =  3.0
     Generated by new atomic code, or converted to UPF format
     Using radial grid of  171 points,  2 beta functions with: 
                l(1) =   0
                l(2) =   1

     atomic species   valence    mass     pseudopotential
        Al             3.00    26.98000     Al( 1.00)

     48 Sym. Ops., with inversion, found



   Cartesian axes

     site n.     atom                  positions (alat units)
         1           Al  tau(   1) = (   0.0000000   0.0000000   0.0000000  )

     number of k points=   200  Methfessel-Paxton smearing, width (Ry)=  0.0500

     Number of k-points >= 100: set verbosity='high' to print them.

     Dense  grid:      869 G-vectors     FFT dimensions: (  15,  15,  15)

     Largest allocated arrays     est. size (Mb)     dimensions
        Kohn-Sham Wavefunctions         0.01 Mb     (      59,    6)
        NL pseudopotentials             0.00 Mb     (      59,    4)
        Each V/rho on FFT grid          0.03 Mb     (    1800)
        Each G-vector array             0.00 Mb     (     435)
        G-vector shells                 0.00 Mb     (      31)
     Largest temporary arrays     est. size (Mb)     dimensions
        Auxiliary wavefunctions         0.02 Mb     (      59,   24)
        Each subspace H/S matrix        0.01 Mb     (      24,   24)
        Each <psi_i|beta_j> matrix      0.00 Mb     (       4,    6)

     The potential is recalculated from file :
     /home/nvarini/espresso_hdf5/espresso/tempdir/_ph0/al.save/charge-density.hdf5

     Starting wfc are    4 atomic +    2 random wfc

     Band Structure Calculation
     Davidson diagonalization with overlap

     ethr =  3.33E-10,  avg # of iterations = 13.4

     total cpu time spent up to now is        1.6 secs

     End of band structure calculation

     Number of k-points >= 100: set verbosity='high' to print the bands.

     the Fermi energy is     8.1818 ev

     Writing output data file al.save

                                                                                

     bravais-lattice index     =            2
     lattice parameter (alat)  =       7.5000  a.u.
     unit-cell volume          =     105.4688 (a.u.)^3
     number of atoms/cell      =            1
     number of atomic types    =            1
     kinetic-energy cut-off    =      15.0000  Ry
     charge density cut-off    =      60.0000  Ry
     convergence threshold     =      1.0E-10
     beta                      =       0.7000
     number of iterations used =            4
     Exchange-correlation      =  SLA  PZ   NOGX NOGC ( 1  1  0  0 0 0)


     celldm(1)=    7.50000  celldm(2)=    0.00000  celldm(3)=    0.00000
     celldm(4)=    0.00000  celldm(5)=    0.00000  celldm(6)=    0.00000

     crystal axes: (cart. coord. in units of alat)
               a(1) = ( -0.5000  0.0000  0.5000 )  
               a(2) = (  0.0000  0.5000  0.5000 )  
               a(3) = ( -0.5000  0.5000  0.0000 )  

     reciprocal axes: (cart. coord. in units 2 pi/alat)
               b(1) = ( -1.0000 -1.0000  1.0000 )  
               b(2) = (  1.0000  1.0000  1.0000 )  
               b(3) = ( -1.0000  1.0000 -1.0000 )  


     Atoms inside the unit cell: 

     Cartesian axes

     site n.  atom      mass           positions (alat units)
        1     Al  26.9800   tau(    1) = (    0.00000    0.00000    0.00000  )

     Computing dynamical matrix for 
                    q = (   0.2500000   0.0000000   0.0000000 )
 
      8 Sym.Ops. (no q -> -q+G )


     G cutoff =   85.4897  (    435 G-vectors)     FFT grid: ( 15, 15, 15)

     number of k points=   200  Methfessel-Paxton smearing, width (Ry)=  0.0500

     PseudoPot. # 1 for Al read from file:
     /home/nvarini/espresso_hdf5/espresso/pseudo/Al.pz-vbc.UPF
     MD5 check sum: 614279c88ff8d45c90147292d03ed420
     Pseudo is Norm-conserving, Zval =  3.0
     Generated by new atomic code, or converted to UPF format
     Using radial grid of  171 points,  2 beta functions with: 
                l(1) =   0
                l(2) =   1

     Mode symmetry, C_4v (4mm)  point group:


     Atomic displacements:
     There are   2 irreducible representations

     Representation     1      1 modes -A_1  G_1 D_1  To be done

     Representation     2      2 modes -E    G_5 D_5  To be done



     Alpha used in Ewald sum =   0.7000
     PHONON       :     3.04s CPU         3.17s WALL



     Representation #  1 mode #   1

     Self-consistent Calculation

      iter #   1 total cpu time :     3.4 secs   av.it.:   4.2
      thresh= 1.000E-02 alpha_mix =  0.700 |ddv_scf|^2 =  5.675E-01

      iter #   2 total cpu time :     3.6 secs   av.it.:   5.5
      thresh= 1.000E-02 alpha_mix =  0.700 |ddv_scf|^2 =  2.122E+02

      iter #   3 total cpu time :     3.8 secs   av.it.:   5.5
      thresh= 1.000E-02 alpha_mix =  0.700 |ddv_scf|^2 =  7.853E-04

      iter #   4 total cpu time :     3.9 secs   av.it.:   2.4
      thresh= 2.802E-03 alpha_mix =  0.700 |ddv_scf|^2 =  2.376E-08

      iter #   5 total cpu time :     4.1 secs   av.it.:   5.3
      thresh= 1.542E-05 alpha_mix =  0.700 |ddv_scf|^2 =  3.942E-09

      iter #   6 total cpu time :     4.3 secs   av.it.:   3.9
      thresh= 6.279E-06 alpha_mix =  0.700 |ddv_scf|^2 =  7.199E-10

      iter #   7 total cpu time :     4.4 secs   av.it.:   2.2
      thresh= 2.683E-06 alpha_mix =  0.700 |ddv_scf|^2 =  5.103E-10

      iter #   8 total cpu time :     4.6 secs   av.it.:   2.4
      thresh= 2.259E-06 alpha_mix =  0.700 |ddv_scf|^2 =  5.003E-12

     End of self-consistent calculation

     Convergence has been achieved 


     Representation #  2 modes #   2  3

     Self-consistent Calculation

      iter #   1 total cpu time :     4.9 secs   av.it.:   3.3
      thresh= 1.000E-02 alpha_mix =  0.700 |ddv_scf|^2 =  3.753E-08

      iter #   2 total cpu time :     5.3 secs   av.it.:   6.0
      thresh= 1.937E-05 alpha_mix =  0.700 |ddv_scf|^2 =  3.094E-09

      iter #   3 total cpu time :     5.6 secs   av.it.:   5.7
      thresh= 5.563E-06 alpha_mix =  0.700 |ddv_scf|^2 =  2.517E-11

     End of self-consistent calculation

     Convergence has been achieved 
 
     Number of q in the star =    6
     List of q in the star:
          1   0.250000000   0.000000000   0.000000000
          2   0.000000000   0.000000000  -0.250000000
          3  -0.250000000   0.000000000   0.000000000
          4   0.000000000  -0.250000000   0.000000000
          5   0.000000000   0.250000000   0.000000000
          6   0.000000000   0.000000000   0.250000000

     Diagonalizing the dynamical matrix

     q = (    0.250000000   0.000000000   0.000000000 ) 

 **************************************************************************
     freq (    1) =       2.361619 [THz] =      78.775127 [cm-1]
     freq (    2) =       2.361619 [THz] =      78.775127 [cm-1]
     freq (    3) =       4.129249 [THz] =     137.736922 [cm-1]
 **************************************************************************

     Mode symmetry, C_4v (4mm)  point group:

     freq (  1 -  2) =         78.8  [cm-1]   --> E    G_5 D_5       
     freq (  3 -  3) =        137.7  [cm-1]   --> A_1  G_1 D_1       

     Calculation of q =    0.5000000   0.0000000   0.0000000
 
     Parallelization info
     --------------------
     sticks:   dense  smooth     PW     G-vecs:    dense   smooth      PW
     Min          60      60     27                  434      434     129
     Max          61      61     28                  435      435     130
     Sum         121     121     55                  869      869     259
 


     bravais-lattice index     =            2
     lattice parameter (alat)  =       7.5000  a.u.
     unit-cell volume          =     105.4688 (a.u.)^3
     number of atoms/cell      =            1
     number of atomic types    =            1
     number of electrons       =         3.00
     number of Kohn-Sham states=            6
     kinetic-energy cutoff     =      15.0000  Ry
     charge density cutoff     =      60.0000  Ry
     Exchange-correlation      =  SLA  PZ   NOGX NOGC ( 1  1  0  0 0 0)

     celldm(1)=   7.500000  celldm(2)=   0.000000  celldm(3)=   0.000000
     celldm(4)=   0.000000  celldm(5)=   0.000000  celldm(6)=   0.000000

     crystal axes: (cart. coord. in units of alat)
               a(1) = (  -0.500000   0.000000   0.500000 )  
               a(2) = (   0.000000   0.500000   0.500000 )  
               a(3) = (  -0.500000   0.500000   0.000000 )  

     reciprocal axes: (cart. coord. in units 2 pi/alat)
               b(1) = ( -1.000000 -1.000000  1.000000 )  
               b(2) = (  1.000000  1.000000  1.000000 )  
               b(3) = ( -1.000000  1.000000 -1.000000 )  


     PseudoPot. # 1 for Al read from file:
     /home/nvarini/espresso_hdf5/espresso/pseudo/Al.pz-vbc.UPF
     MD5 check sum: 614279c88ff8d45c90147292d03ed420
     Pseudo is Norm-conserving, Zval =  3.0
     Generated by new atomic code, or converted to UPF format
     Using radial grid of  171 points,  2 beta functions with: 
                l(1) =   0
                l(2) =   1

     atomic species   valence    mass     pseudopotential
        Al             3.00    26.98000     Al( 1.00)

     48 Sym. Ops., with inversion, found



   Cartesian axes

     site n.     atom                  positions (alat units)
         1           Al  tau(   1) = (   0.0000000   0.0000000   0.0000000  )

     number of k points=   200  Methfessel-Paxton smearing, width (Ry)=  0.0500

     Number of k-points >= 100: set verbosity='high' to print them.

     Dense  grid:      869 G-vectors     FFT dimensions: (  15,  15,  15)

     Largest allocated arrays     est. size (Mb)     dimensions
        Kohn-Sham Wavefunctions         0.01 Mb     (      59,    6)
        NL pseudopotentials             0.00 Mb     (      59,    4)
        Each V/rho on FFT grid          0.03 Mb     (    1800)
        Each G-vector array             0.00 Mb     (     435)
        G-vector shells                 0.00 Mb     (      31)
     Largest temporary arrays     est. size (Mb)     dimensions
        Auxiliary wavefunctions         0.02 Mb     (      59,   24)
        Each subspace H/S matrix        0.01 Mb     (      24,   24)
        Each <psi_i|beta_j> matrix      0.00 Mb     (       4,    6)

     The potential is recalculated from file :
     /home/nvarini/espresso_hdf5/espresso/tempdir/_ph0/al.save/charge-density.hdf5

     Starting wfc are    4 atomic +    2 random wfc

     Band Structure Calculation
     Davidson diagonalization with overlap

     ethr =  3.33E-10,  avg # of iterations = 13.5

     total cpu time spent up to now is        3.5 secs

     End of band structure calculation

     Number of k-points >= 100: set verbosity='high' to print the bands.

     the Fermi energy is     8.1818 ev

     Writing output data file al.save

                                                                                

     bravais-lattice index     =            2
     lattice parameter (alat)  =       7.5000  a.u.
     unit-cell volume          =     105.4688 (a.u.)^3
     number of atoms/cell      =            1
     number of atomic types    =            1
     kinetic-energy cut-off    =      15.0000  Ry
     charge density cut-off    =      60.0000  Ry
     convergence threshold     =      1.0E-10
     beta                      =       0.7000
     number of iterations used =            4
     Exchange-correlation      =  SLA  PZ   NOGX NOGC ( 1  1  0  0 0 0)


     celldm(1)=    7.50000  celldm(2)=    0.00000  celldm(3)=    0.00000
     celldm(4)=    0.00000  celldm(5)=    0.00000  celldm(6)=    0.00000

     crystal axes: (cart. coord. in units of alat)
               a(1) = ( -0.5000  0.0000  0.5000 )  
               a(2) = (  0.0000  0.5000  0.5000 )  
               a(3) = ( -0.5000  0.5000  0.0000 )  

     reciprocal axes: (cart. coord. in units 2 pi/alat)
               b(1) = ( -1.0000 -1.0000  1.0000 )  
               b(2) = (  1.0000  1.0000  1.0000 )  
               b(3) = ( -1.0000  1.0000 -1.0000 )  


     Atoms inside the unit cell: 

     Cartesian axes

     site n.  atom      mass           positions (alat units)
        1     Al  26.9800   tau(    1) = (    0.00000    0.00000    0.00000  )

     Computing dynamical matrix for 
                    q = (   0.5000000   0.0000000   0.0000000 )
 
      8 Sym.Ops. (no q -> -q+G )


     G cutoff =   85.4897  (    435 G-vectors)     FFT grid: ( 15, 15, 15)

     number of k points=   200  Methfessel-Paxton smearing, width (Ry)=  0.0500

     PseudoPot. # 1 for Al read from file:
     /home/nvarini/espresso_hdf5/espresso/pseudo/Al.pz-vbc.UPF
     MD5 check sum: 614279c88ff8d45c90147292d03ed420
     Pseudo is Norm-conserving, Zval =  3.0
     Generated by new atomic code, or converted to UPF format
     Using radial grid of  171 points,  2 beta functions with: 
                l(1) =   0
                l(2) =   1

     Mode symmetry, C_4v (4mm)  point group:


     Atomic displacements:
     There are   2 irreducible representations

     Representation     1      1 modes -A_1  G_1 D_1  To be done

     Representation     2      2 modes -E    G_5 D_5  To be done



     Alpha used in Ewald sum =   0.7000
     PHONON       :     7.21s CPU         7.70s WALL



     Representation #  1 mode #   1

     Self-consistent Calculation

      iter #   1 total cpu time :     7.9 secs   av.it.:   4.0
      thresh= 1.000E-02 alpha_mix =  0.700 |ddv_scf|^2 =  7.781E-03

      iter #   2 total cpu time :     8.1 secs   av.it.:   4.6
      thresh= 8.821E-03 alpha_mix =  0.700 |ddv_scf|^2 =  1.718E-01

      iter #   3 total cpu time :     8.3 secs   av.it.:   4.4
      thresh= 1.000E-02 alpha_mix =  0.700 |ddv_scf|^2 =  5.011E-08

      iter #   4 total cpu time :     8.5 secs   av.it.:   5.8
      thresh= 2.239E-05 alpha_mix =  0.700 |ddv_scf|^2 =  1.012E-09

      iter #   5 total cpu time :     8.7 secs   av.it.:   5.0
      thresh= 3.181E-06 alpha_mix =  0.700 |ddv_scf|^2 =  6.505E-12

     End of self-consistent calculation

     Convergence has been achieved 


     Representation #  2 modes #   2  3

     Self-consistent Calculation

      iter #   1 total cpu time :     9.0 secs   av.it.:   3.5
      thresh= 1.000E-02 alpha_mix =  0.700 |ddv_scf|^2 =  8.883E-08

      iter #   2 total cpu time :     9.3 secs   av.it.:   6.3
      thresh= 2.980E-05 alpha_mix =  0.700 |ddv_scf|^2 =  3.106E-09

      iter #   3 total cpu time :     9.7 secs   av.it.:   5.6
      thresh= 5.573E-06 alpha_mix =  0.700 |ddv_scf|^2 =  1.737E-10

      iter #   4 total cpu time :    10.0 secs   av.it.:   5.4
      thresh= 1.318E-06 alpha_mix =  0.700 |ddv_scf|^2 =  1.708E-14

     End of self-consistent calculation

     Convergence has been achieved 
 
     Number of q in the star =    6
     List of q in the star:
          1   0.500000000   0.000000000   0.000000000
          2   0.000000000   0.000000000  -0.500000000
          3  -0.500000000   0.000000000   0.000000000
          4   0.000000000  -0.500000000   0.000000000
          5   0.000000000   0.500000000   0.000000000
          6   0.000000000   0.000000000   0.500000000

     Diagonalizing the dynamical matrix

     q = (    0.500000000   0.000000000   0.000000000 ) 

 **************************************************************************
     freq (    1) =       4.263836 [THz] =     142.226268 [cm-1]
     freq (    2) =       4.263836 [THz] =     142.226268 [cm-1]
     freq (    3) =       6.783999 [THz] =     226.289840 [cm-1]
 **************************************************************************

     Mode symmetry, C_4v (4mm)  point group:

     freq (  1 -  2) =        142.2  [cm-1]   --> E    G_5 D_5       
     freq (  3 -  3) =        226.3  [cm-1]   --> A_1  G_1 D_1       

     Calculation of q =    0.7500000   0.0000000   0.0000000
 
     Parallelization info
     --------------------
     sticks:   dense  smooth     PW     G-vecs:    dense   smooth      PW
     Min          60      60     27                  434      434     141
     Max          61      61     28                  435      435     142
     Sum         121     121     55                  869      869     283
 


     bravais-lattice index     =            2
     lattice parameter (alat)  =       7.5000  a.u.
     unit-cell volume          =     105.4688 (a.u.)^3
     number of atoms/cell      =            1
     number of atomic types    =            1
     number of electrons       =         3.00
     number of Kohn-Sham states=            6
     kinetic-energy cutoff     =      15.0000  Ry
     charge density cutoff     =      60.0000  Ry
     Exchange-correlation      =  SLA  PZ   NOGX NOGC ( 1  1  0  0 0 0)

     celldm(1)=   7.500000  celldm(2)=   0.000000  celldm(3)=   0.000000
     celldm(4)=   0.000000  celldm(5)=   0.000000  celldm(6)=   0.000000

     crystal axes: (cart. coord. in units of alat)
               a(1) = (  -0.500000   0.000000   0.500000 )  
               a(2) = (   0.000000   0.500000   0.500000 )  
               a(3) = (  -0.500000   0.500000   0.000000 )  

     reciprocal axes: (cart. coord. in units 2 pi/alat)
               b(1) = ( -1.000000 -1.000000  1.000000 )  
               b(2) = (  1.000000  1.000000  1.000000 )  
               b(3) = ( -1.000000  1.000000 -1.000000 )  


     PseudoPot. # 1 for Al read from file:
     /home/nvarini/espresso_hdf5/espresso/pseudo/Al.pz-vbc.UPF
     MD5 check sum: 614279c88ff8d45c90147292d03ed420
     Pseudo is Norm-conserving, Zval =  3.0
     Generated by new atomic code, or converted to UPF format
     Using radial grid of  171 points,  2 beta functions with: 
                l(1) =   0
                l(2) =   1

     atomic species   valence    mass     pseudopotential
        Al             3.00    26.98000     Al( 1.00)

     48 Sym. Ops., with inversion, found



   Cartesian axes

     site n.     atom                  positions (alat units)
         1           Al  tau(   1) = (   0.0000000   0.0000000   0.0000000  )

     number of k points=   200  Methfessel-Paxton smearing, width (Ry)=  0.0500

     Number of k-points >= 100: set verbosity='high' to print them.

     Dense  grid:      869 G-vectors     FFT dimensions: (  15,  15,  15)

     Largest allocated arrays     est. size (Mb)     dimensions
        Kohn-Sham Wavefunctions         0.01 Mb     (      58,    6)
        NL pseudopotentials             0.00 Mb     (      58,    4)
        Each V/rho on FFT grid          0.03 Mb     (    1800)
        Each G-vector array             0.00 Mb     (     435)
        G-vector shells                 0.00 Mb     (      31)
     Largest temporary arrays     est. size (Mb)     dimensions
        Auxiliary wavefunctions         0.02 Mb     (      58,   24)
        Each subspace H/S matrix        0.01 Mb     (      24,   24)
        Each <psi_i|beta_j> matrix      0.00 Mb     (       4,    6)

     The potential is recalculated from file :
     /home/nvarini/espresso_hdf5/espresso/tempdir/_ph0/al.save/charge-density.hdf5

     Starting wfc are    4 atomic +    2 random wfc

     Band Structure Calculation
     Davidson diagonalization with overlap

     ethr =  3.33E-10,  avg # of iterations = 13.5

     total cpu time spent up to now is        5.4 secs

     End of band structure calculation

     Number of k-points >= 100: set verbosity='high' to print the bands.

     the Fermi energy is     8.1818 ev

     Writing output data file al.save

                                                                                

     bravais-lattice index     =            2
     lattice parameter (alat)  =       7.5000  a.u.
     unit-cell volume          =     105.4688 (a.u.)^3
     number of atoms/cell      =            1
     number of atomic types    =            1
     kinetic-energy cut-off    =      15.0000  Ry
     charge density cut-off    =      60.0000  Ry
     convergence threshold     =      1.0E-10
     beta                      =       0.7000
     number of iterations used =            4
     Exchange-correlation      =  SLA  PZ   NOGX NOGC ( 1  1  0  0 0 0)


     celldm(1)=    7.50000  celldm(2)=    0.00000  celldm(3)=    0.00000
     celldm(4)=    0.00000  celldm(5)=    0.00000  celldm(6)=    0.00000

     crystal axes: (cart. coord. in units of alat)
               a(1) = ( -0.5000  0.0000  0.5000 )  
               a(2) = (  0.0000  0.5000  0.5000 )  
               a(3) = ( -0.5000  0.5000  0.0000 )  

     reciprocal axes: (cart. coord. in units 2 pi/alat)
               b(1) = ( -1.0000 -1.0000  1.0000 )  
               b(2) = (  1.0000  1.0000  1.0000 )  
               b(3) = ( -1.0000  1.0000 -1.0000 )  


     Atoms inside the unit cell: 

     Cartesian axes

     site n.  atom      mass           positions (alat units)
        1     Al  26.9800   tau(    1) = (    0.00000    0.00000    0.00000  )

     Computing dynamical matrix for 
                    q = (   0.7500000   0.0000000   0.0000000 )
 
      8 Sym.Ops. (no q -> -q+G )


     G cutoff =   85.4897  (    435 G-vectors)     FFT grid: ( 15, 15, 15)

     number of k points=   200  Methfessel-Paxton smearing, width (Ry)=  0.0500

     PseudoPot. # 1 for Al read from file:
     /home/nvarini/espresso_hdf5/espresso/pseudo/Al.pz-vbc.UPF
     MD5 check sum: 614279c88ff8d45c90147292d03ed420
     Pseudo is Norm-conserving, Zval =  3.0
     Generated by new atomic code, or converted to UPF format
     Using radial grid of  171 points,  2 beta functions with: 
                l(1) =   0
                l(2) =   1

     Mode symmetry, C_4v (4mm)  point group:


     Atomic displacements:
     There are   2 irreducible representations

     Representation     1      1 modes -A_1  G_1 D_1  To be done

     Representation     2      2 modes -E    G_5 D_5  To be done



     Alpha used in Ewald sum =   0.7000
     PHONON       :    11.29s CPU        12.04s WALL



     Representation #  1 mode #   1

     Self-consistent Calculation

      iter #   1 total cpu time :    12.2 secs   av.it.:   4.0
      thresh= 1.000E-02 alpha_mix =  0.700 |ddv_scf|^2 =  4.384E-04

      iter #   2 total cpu time :    12.4 secs   av.it.:   5.0
      thresh= 2.094E-03 alpha_mix =  0.700 |ddv_scf|^2 =  1.341E-03

      iter #   3 total cpu time :    12.6 secs   av.it.:   4.3
      thresh= 3.661E-03 alpha_mix =  0.700 |ddv_scf|^2 =  4.101E-08

      iter #   4 total cpu time :    12.8 secs   av.it.:   5.8
      thresh= 2.025E-05 alpha_mix =  0.700 |ddv_scf|^2 =  1.323E-09

      iter #   5 total cpu time :    13.0 secs   av.it.:   5.2
      thresh= 3.638E-06 alpha_mix =  0.700 |ddv_scf|^2 =  4.451E-11

     End of self-consistent calculation

     Convergence has been achieved 


     Representation #  2 modes #   2  3

     Self-consistent Calculation

      iter #   1 total cpu time :    13.3 secs   av.it.:   3.5
      thresh= 1.000E-02 alpha_mix =  0.700 |ddv_scf|^2 =  2.073E-07

      iter #   2 total cpu time :    13.7 secs   av.it.:   6.2
      thresh= 4.553E-05 alpha_mix =  0.700 |ddv_scf|^2 =  3.202E-09

      iter #   3 total cpu time :    14.0 secs   av.it.:   5.5
      thresh= 5.658E-06 alpha_mix =  0.700 |ddv_scf|^2 =  3.162E-10

      iter #   4 total cpu time :    14.3 secs   av.it.:   5.5
      thresh= 1.778E-06 alpha_mix =  0.700 |ddv_scf|^2 =  1.168E-14

     End of self-consistent calculation

     Convergence has been achieved 
 
     Number of q in the star =    6
     List of q in the star:
          1   0.750000000   0.000000000   0.000000000
          2   0.000000000   0.000000000  -0.750000000
          3  -0.750000000   0.000000000   0.000000000
          4   0.000000000  -0.750000000   0.000000000
          5   0.000000000   0.750000000   0.000000000
          6   0.000000000   0.000000000   0.750000000

     Diagonalizing the dynamical matrix

     q = (    0.750000000   0.000000000   0.000000000 ) 

 **************************************************************************
     freq (    1) =       5.454457 [THz] =     181.941112 [cm-1]
     freq (    2) =       5.454457 [THz] =     181.941112 [cm-1]
     freq (    3) =       8.330596 [THz] =     277.878786 [cm-1]
 **************************************************************************

     Mode symmetry, C_4v (4mm)  point group:

     freq (  1 -  2) =        181.9  [cm-1]   --> E    G_5 D_5       
     freq (  3 -  3) =        277.9  [cm-1]   --> A_1  G_1 D_1       

     Calculation of q =    1.0000000   0.0000000   0.0000000
 
     Parallelization info
     --------------------
     sticks:   dense  smooth     PW     G-vecs:    dense   smooth      PW
     Min          60      60     30                  434      434     165
     Max          61      61     31                  435      435     166
     Sum         121     121     61                  869      869     331
 


     bravais-lattice index     =            2
     lattice parameter (alat)  =       7.5000  a.u.
     unit-cell volume          =     105.4688 (a.u.)^3
     number of atoms/cell      =            1
     number of atomic types    =            1
     number of electrons       =         3.00
     number of Kohn-Sham states=            6
     kinetic-energy cutoff     =      15.0000  Ry
     charge density cutoff     =      60.0000  Ry
     Exchange-correlation      =  SLA  PZ   NOGX NOGC ( 1  1  0  0 0 0)

     celldm(1)=   7.500000  celldm(2)=   0.000000  celldm(3)=   0.000000
     celldm(4)=   0.000000  celldm(5)=   0.000000  celldm(6)=   0.000000

     crystal axes: (cart. coord. in units of alat)
               a(1) = (  -0.500000   0.000000   0.500000 )  
               a(2) = (   0.000000   0.500000   0.500000 )  
               a(3) = (  -0.500000   0.500000   0.000000 )  

     reciprocal axes: (cart. coord. in units 2 pi/alat)
               b(1) = ( -1.000000 -1.000000  1.000000 )  
               b(2) = (  1.000000  1.000000  1.000000 )  
               b(3) = ( -1.000000  1.000000 -1.000000 )  


     PseudoPot. # 1 for Al read from file:
     /home/nvarini/espresso_hdf5/espresso/pseudo/Al.pz-vbc.UPF
     MD5 check sum: 614279c88ff8d45c90147292d03ed420
     Pseudo is Norm-conserving, Zval =  3.0
     Generated by new atomic code, or converted to UPF format
     Using radial grid of  171 points,  2 beta functions with: 
                l(1) =   0
                l(2) =   1

     atomic species   valence    mass     pseudopotential
        Al             3.00    26.98000     Al( 1.00)

     48 Sym. Ops., with inversion, found



   Cartesian axes

     site n.     atom                  positions (alat units)
         1           Al  tau(   1) = (   0.0000000   0.0000000   0.0000000  )

     number of k points=   118  Methfessel-Paxton smearing, width (Ry)=  0.0500

     Number of k-points >= 100: set verbosity='high' to print them.

     Dense  grid:      869 G-vectors     FFT dimensions: (  15,  15,  15)

     Largest allocated arrays     est. size (Mb)     dimensions
        Kohn-Sham Wavefunctions         0.01 Mb     (      60,    6)
        NL pseudopotentials             0.00 Mb     (      60,    4)
        Each V/rho on FFT grid          0.03 Mb     (    1800)
        Each G-vector array             0.00 Mb     (     435)
        G-vector shells                 0.00 Mb     (      31)
     Largest temporary arrays     est. size (Mb)     dimensions
        Auxiliary wavefunctions         0.02 Mb     (      60,   24)
        Each subspace H/S matrix        0.01 Mb     (      24,   24)
        Each <psi_i|beta_j> matrix      0.00 Mb     (       4,    6)

     The potential is recalculated from file :
     /home/nvarini/espresso_hdf5/espresso/tempdir/_ph0/al.save/charge-density.hdf5

     Starting wfc are    4 atomic +    2 random wfc

     Band Structure Calculation
     Davidson diagonalization with overlap

     ethr =  3.33E-10,  avg # of iterations = 13.3

     total cpu time spent up to now is        6.7 secs

     End of band structure calculation

     Number of k-points >= 100: set verbosity='high' to print the bands.

     the Fermi energy is     8.1818 ev

     Writing output data file al.save

                                                                                

     bravais-lattice index     =            2
     lattice parameter (alat)  =       7.5000  a.u.
     unit-cell volume          =     105.4688 (a.u.)^3
     number of atoms/cell      =            1
     number of atomic types    =            1
     kinetic-energy cut-off    =      15.0000  Ry
     charge density cut-off    =      60.0000  Ry
     convergence threshold     =      1.0E-10
     beta                      =       0.7000
     number of iterations used =            4
     Exchange-correlation      =  SLA  PZ   NOGX NOGC ( 1  1  0  0 0 0)


     celldm(1)=    7.50000  celldm(2)=    0.00000  celldm(3)=    0.00000
     celldm(4)=    0.00000  celldm(5)=    0.00000  celldm(6)=    0.00000

     crystal axes: (cart. coord. in units of alat)
               a(1) = ( -0.5000  0.0000  0.5000 )  
               a(2) = (  0.0000  0.5000  0.5000 )  
               a(3) = ( -0.5000  0.5000  0.0000 )  

     reciprocal axes: (cart. coord. in units 2 pi/alat)
               b(1) = ( -1.0000 -1.0000  1.0000 )  
               b(2) = (  1.0000  1.0000  1.0000 )  
               b(3) = ( -1.0000  1.0000 -1.0000 )  


     Atoms inside the unit cell: 

     Cartesian axes

     site n.  atom      mass           positions (alat units)
        1     Al  26.9800   tau(    1) = (    0.00000    0.00000    0.00000  )

     Computing dynamical matrix for 
                    q = (   1.0000000   0.0000000   0.0000000 )
 
     17 Sym.Ops. (with q -> -q+G )


     G cutoff =   85.4897  (    435 G-vectors)     FFT grid: ( 15, 15, 15)

     number of k points=   118  Methfessel-Paxton smearing, width (Ry)=  0.0500

     PseudoPot. # 1 for Al read from file:
     /home/nvarini/espresso_hdf5/espresso/pseudo/Al.pz-vbc.UPF
     MD5 check sum: 614279c88ff8d45c90147292d03ed420
     Pseudo is Norm-conserving, Zval =  3.0
     Generated by new atomic code, or converted to UPF format
     Using radial grid of  171 points,  2 beta functions with: 
                l(1) =   0
                l(2) =   1

     Mode symmetry, D_4h(4/mmm) point group:


     Atomic displacements:
     There are   2 irreducible representations

     Representation     1      1 modes -A_2u X_4' M_4'  To be done

     Representation     2      2 modes -E_u  X_5' M_5'  To be done



     Alpha used in Ewald sum =   0.7000
     PHONON       :    14.62s CPU        15.57s WALL



     Representation #  1 mode #   1

     Self-consistent Calculation

      iter #   1 total cpu time :    15.7 secs   av.it.:   3.8
      thresh= 1.000E-02 alpha_mix =  0.700 |ddv_scf|^2 =  6.006E-05

      iter #   2 total cpu time :    15.8 secs   av.it.:   5.2
      thresh= 7.750E-04 alpha_mix =  0.700 |ddv_scf|^2 =  2.270E-05

      iter #   3 total cpu time :    15.9 secs   av.it.:   4.9
      thresh= 4.764E-04 alpha_mix =  0.700 |ddv_scf|^2 =  4.464E-09

      iter #   4 total cpu time :    16.0 secs   av.it.:   5.3
      thresh= 6.681E-06 alpha_mix =  0.700 |ddv_scf|^2 =  2.164E-11

     End of self-consistent calculation

     Convergence has been achieved 


     Representation #  2 modes #   2  3

     Self-consistent Calculation

      iter #   1 total cpu time :    16.2 secs   av.it.:   3.5
      thresh= 1.000E-02 alpha_mix =  0.700 |ddv_scf|^2 =  2.798E-07

      iter #   2 total cpu time :    16.5 secs   av.it.:   6.1
      thresh= 5.289E-05 alpha_mix =  0.700 |ddv_scf|^2 =  3.979E-09

      iter #   3 total cpu time :    16.7 secs   av.it.:   5.7
      thresh= 6.308E-06 alpha_mix =  0.700 |ddv_scf|^2 =  3.712E-10

      iter #   4 total cpu time :    16.9 secs   av.it.:   5.5
      thresh= 1.927E-06 alpha_mix =  0.700 |ddv_scf|^2 =  1.346E-14

     End of self-consistent calculation

     Convergence has been achieved 
 
     Number of q in the star =    3
     List of q in the star:
          1   1.000000000   0.000000000   0.000000000
          2   0.000000000   1.000000000   0.000000000
          3   0.000000000   0.000000000  -1.000000000

     Diagonalizing the dynamical matrix

     q = (    1.000000000   0.000000000   0.000000000 ) 

 **************************************************************************
     freq (    1) =       6.051592 [THz] =     201.859372 [cm-1]
     freq (    2) =       6.051592 [THz] =     201.859372 [cm-1]
     freq (    3) =       9.996850 [THz] =     333.459016 [cm-1]
 **************************************************************************

     Mode symmetry, D_4h(4/mmm) point group:

     freq (  1 -  2) =        201.9  [cm-1]   --> E_u  X_5' M_5'     
     freq (  3 -  3) =        333.5  [cm-1]   --> A_2u X_4' M_4'     

     Calculation of q =    1.0000000   0.2500000   0.0000000
 
     Parallelization info
     --------------------
     sticks:   dense  smooth     PW     G-vecs:    dense   smooth      PW
     Min          60      60     30                  434      434     165
     Max          61      61     31                  435      435     166
     Sum         121     121     61                  869      869     331
 


     bravais-lattice index     =            2
     lattice parameter (alat)  =       7.5000  a.u.
     unit-cell volume          =     105.4688 (a.u.)^3
     number of atoms/cell      =            1
     number of atomic types    =            1
     number of electrons       =         3.00
     number of Kohn-Sham states=            6
     kinetic-energy cutoff     =      15.0000  Ry
     charge density cutoff     =      60.0000  Ry
     Exchange-correlation      =  SLA  PZ   NOGX NOGC ( 1  1  0  0 0 0)

     celldm(1)=   7.500000  celldm(2)=   0.000000  celldm(3)=   0.000000
     celldm(4)=   0.000000  celldm(5)=   0.000000  celldm(6)=   0.000000

     crystal axes: (cart. coord. in units of alat)
               a(1) = (  -0.500000   0.000000   0.500000 )  
               a(2) = (   0.000000   0.500000   0.500000 )  
               a(3) = (  -0.500000   0.500000   0.000000 )  

     reciprocal axes: (cart. coord. in units 2 pi/alat)
               b(1) = ( -1.000000 -1.000000  1.000000 )  
               b(2) = (  1.000000  1.000000  1.000000 )  
               b(3) = ( -1.000000  1.000000 -1.000000 )  


     PseudoPot. # 1 for Al read from file:
     /home/nvarini/espresso_hdf5/espresso/pseudo/Al.pz-vbc.UPF
     MD5 check sum: 614279c88ff8d45c90147292d03ed420
     Pseudo is Norm-conserving, Zval =  3.0
     Generated by new atomic code, or converted to UPF format
     Using radial grid of  171 points,  2 beta functions with: 
                l(1) =   0
                l(2) =   1

     atomic species   valence    mass     pseudopotential
        Al             3.00    26.98000     Al( 1.00)

     48 Sym. Ops., with inversion, found



   Cartesian axes

     site n.     atom                  positions (alat units)
         1           Al  tau(   1) = (   0.0000000   0.0000000   0.0000000  )

     number of k points=   328  Methfessel-Paxton smearing, width (Ry)=  0.0500

     Number of k-points >= 100: set verbosity='high' to print them.

     Dense  grid:      869 G-vectors     FFT dimensions: (  15,  15,  15)

     Largest allocated arrays     est. size (Mb)     dimensions
        Kohn-Sham Wavefunctions         0.01 Mb     (      60,    6)
        NL pseudopotentials             0.00 Mb     (      60,    4)
        Each V/rho on FFT grid          0.03 Mb     (    1800)
        Each G-vector array             0.00 Mb     (     435)
        G-vector shells                 0.00 Mb     (      31)
     Largest temporary arrays     est. size (Mb)     dimensions
        Auxiliary wavefunctions         0.02 Mb     (      60,   24)
        Each subspace H/S matrix        0.01 Mb     (      24,   24)
        Each <psi_i|beta_j> matrix      0.00 Mb     (       4,    6)

     The potential is recalculated from file :
     /home/nvarini/espresso_hdf5/espresso/tempdir/_ph0/al.save/charge-density.hdf5

     Starting wfc are    4 atomic +    2 random wfc

     Band Structure Calculation
     Davidson diagonalization with overlap

     ethr =  3.33E-10,  avg # of iterations = 13.3

     total cpu time spent up to now is        9.5 secs

     End of band structure calculation

     Number of k-points >= 100: set verbosity='high' to print the bands.

     the Fermi energy is     8.1818 ev

     Writing output data file al.save

                                                                                

     bravais-lattice index     =            2
     lattice parameter (alat)  =       7.5000  a.u.
     unit-cell volume          =     105.4688 (a.u.)^3
     number of atoms/cell      =            1
     number of atomic types    =            1
     kinetic-energy cut-off    =      15.0000  Ry
     charge density cut-off    =      60.0000  Ry
     convergence threshold     =      1.0E-10
     beta                      =       0.7000
     number of iterations used =            4
     Exchange-correlation      =  SLA  PZ   NOGX NOGC ( 1  1  0  0 0 0)


     celldm(1)=    7.50000  celldm(2)=    0.00000  celldm(3)=    0.00000
     celldm(4)=    0.00000  celldm(5)=    0.00000  celldm(6)=    0.00000

     crystal axes: (cart. coord. in units of alat)
               a(1) = ( -0.5000  0.0000  0.5000 )  
               a(2) = (  0.0000  0.5000  0.5000 )  
               a(3) = ( -0.5000  0.5000  0.0000 )  

     reciprocal axes: (cart. coord. in units 2 pi/alat)
               b(1) = ( -1.0000 -1.0000  1.0000 )  
               b(2) = (  1.0000  1.0000  1.0000 )  
               b(3) = ( -1.0000  1.0000 -1.0000 )  


     Atoms inside the unit cell: 

     Cartesian axes

     site n.  atom      mass           positions (alat units)
        1     Al  26.9800   tau(    1) = (    0.00000    0.00000    0.00000  )

     Computing dynamical matrix for 
                    q = (   1.0000000   0.2500000   0.0000000 )
 
      4 Sym.Ops. (no q -> -q+G )


     G cutoff =   85.4897  (    435 G-vectors)     FFT grid: ( 15, 15, 15)

     number of k points=   328  Methfessel-Paxton smearing, width (Ry)=  0.0500

     PseudoPot. # 1 for Al read from file:
     /home/nvarini/espresso_hdf5/espresso/pseudo/Al.pz-vbc.UPF
     MD5 check sum: 614279c88ff8d45c90147292d03ed420
     Pseudo is Norm-conserving, Zval =  3.0
     Generated by new atomic code, or converted to UPF format
     Using radial grid of  171 points,  2 beta functions with: 
                l(1) =   0
                l(2) =   1

     Mode symmetry, C_2v (mm2)  point group:


     Atomic displacements:
     There are   3 irreducible representations

     Representation     1      1 modes -A_1  D_1  S_1  To be done

     Representation     2      1 modes -B_1  D_3  S_3  To be done

     Representation     3      1 modes -B_2  D_4  S_4  To be done



     Alpha used in Ewald sum =   0.7000
     PHONON       :    18.99s CPU        20.18s WALL



     Representation #  1 mode #   1

     Self-consistent Calculation

      iter #   1 total cpu time :    20.5 secs   av.it.:   3.7
      thresh= 1.000E-02 alpha_mix =  0.700 |ddv_scf|^2 =  4.687E-06

      iter #   2 total cpu time :    20.8 secs   av.it.:   5.8
      thresh= 2.165E-04 alpha_mix =  0.700 |ddv_scf|^2 =  9.009E-07

      iter #   3 total cpu time :    21.2 secs   av.it.:   5.5
      thresh= 9.492E-05 alpha_mix =  0.700 |ddv_scf|^2 =  1.714E-08

      iter #   4 total cpu time :    21.5 secs   av.it.:   5.6
      thresh= 1.309E-05 alpha_mix =  0.700 |ddv_scf|^2 =  6.294E-10

      iter #   5 total cpu time :    21.8 secs   av.it.:   5.4
      thresh= 2.509E-06 alpha_mix =  0.700 |ddv_scf|^2 =  2.516E-13

     End of self-consistent calculation

     Convergence has been achieved 


     Representation #  2 mode #   2

     Self-consistent Calculation

      iter #   1 total cpu time :    22.2 secs   av.it.:   3.9
      thresh= 1.000E-02 alpha_mix =  0.700 |ddv_scf|^2 =  5.053E-05

      iter #   2 total cpu time :    22.5 secs   av.it.:   5.4
      thresh= 7.109E-04 alpha_mix =  0.700 |ddv_scf|^2 =  2.001E-05

      iter #   3 total cpu time :    22.8 secs   av.it.:   5.1
      thresh= 4.473E-04 alpha_mix =  0.700 |ddv_scf|^2 =  4.476E-09

      iter #   4 total cpu time :    23.1 secs   av.it.:   5.4
      thresh= 6.690E-06 alpha_mix =  0.700 |ddv_scf|^2 =  1.840E-11

     End of self-consistent calculation

     Convergence has been achieved 


     Representation #  3 mode #   3

     Self-consistent Calculation

      iter #   1 total cpu time :    23.5 secs   av.it.:   3.5
      thresh= 1.000E-02 alpha_mix =  0.700 |ddv_scf|^2 =  3.877E-06

      iter #   2 total cpu time :    23.8 secs   av.it.:   5.5
      thresh= 1.969E-04 alpha_mix =  0.700 |ddv_scf|^2 =  1.924E-07

      iter #   3 total cpu time :    24.1 secs   av.it.:   5.4
      thresh= 4.387E-05 alpha_mix =  0.700 |ddv_scf|^2 =  2.445E-09

      iter #   4 total cpu time :    24.4 secs   av.it.:   5.2
      thresh= 4.945E-06 alpha_mix =  0.700 |ddv_scf|^2 =  2.477E-12

     End of self-consistent calculation

     Convergence has been achieved 
 
     Number of q in the star =   12
     List of q in the star:
          1   1.000000000   0.250000000   0.000000000
          2   1.000000000  -0.250000000   0.000000000
          3   1.000000000   0.000000000   0.250000000
          4   1.000000000   0.000000000  -0.250000000
          5   0.250000000   1.000000000   0.000000000
          6  -0.250000000   0.000000000  -1.000000000
          7   0.250000000   0.000000000  -1.000000000
          8   0.000000000  -1.000000000  -0.250000000
          9   0.000000000  -1.000000000   0.250000000
         10   0.000000000  -0.250000000   1.000000000
         11   0.000000000   0.250000000   1.000000000
         12  -0.250000000  -1.000000000   0.000000000

     Diagonalizing the dynamical matrix

     q = (    1.000000000   0.250000000   0.000000000 ) 

 **************************************************************************
     freq (    1) =       6.514971 [THz] =     217.316035 [cm-1]
     freq (    2) =       6.714524 [THz] =     223.972426 [cm-1]
     freq (    3) =       8.747509 [THz] =     291.785476 [cm-1]
 **************************************************************************

     Mode symmetry, C_2v (mm2)  point group:

     freq (  1 -  1) =        217.3  [cm-1]   --> A_1  D_1  S_1      
     freq (  2 -  2) =        224.0  [cm-1]   --> B_2  D_4  S_4      
     freq (  3 -  3) =        291.8  [cm-1]   --> B_1  D_3  S_3      

     Calculation of q =    1.0000000   0.5000000   0.0000000
 
     Parallelization info
     --------------------
     sticks:   dense  smooth     PW     G-vecs:    dense   smooth      PW
     Min          60      60     30                  434      434     165
     Max          61      61     31                  435      435     166
     Sum         121     121     61                  869      869     331
 


     bravais-lattice index     =            2
     lattice parameter (alat)  =       7.5000  a.u.
     unit-cell volume          =     105.4688 (a.u.)^3
     number of atoms/cell      =            1
     number of atomic types    =            1
     number of electrons       =         3.00
     number of Kohn-Sham states=            6
     kinetic-energy cutoff     =      15.0000  Ry
     charge density cutoff     =      60.0000  Ry
     Exchange-correlation      =  SLA  PZ   NOGX NOGC ( 1  1  0  0 0 0)

     celldm(1)=   7.500000  celldm(2)=   0.000000  celldm(3)=   0.000000
     celldm(4)=   0.000000  celldm(5)=   0.000000  celldm(6)=   0.000000

     crystal axes: (cart. coord. in units of alat)
               a(1) = (  -0.500000   0.000000   0.500000 )  
               a(2) = (   0.000000   0.500000   0.500000 )  
               a(3) = (  -0.500000   0.500000   0.000000 )  

     reciprocal axes: (cart. coord. in units 2 pi/alat)
               b(1) = ( -1.000000 -1.000000  1.000000 )  
               b(2) = (  1.000000  1.000000  1.000000 )  
               b(3) = ( -1.000000  1.000000 -1.000000 )  


     PseudoPot. # 1 for Al read from file:
     /home/nvarini/espresso_hdf5/espresso/pseudo/Al.pz-vbc.UPF
     MD5 check sum: 614279c88ff8d45c90147292d03ed420
     Pseudo is Norm-conserving, Zval =  3.0
     Generated by new atomic code, or converted to UPF format
     Using radial grid of  171 points,  2 beta functions with: 
                l(1) =   0
                l(2) =   1

     atomic species   valence    mass     pseudopotential
        Al             3.00    26.98000     Al( 1.00)

     48 Sym. Ops., with inversion, found



   Cartesian axes

     site n.     atom                  positions (alat units)
         1           Al  tau(   1) = (   0.0000000   0.0000000   0.0000000  )

     number of k points=   174  Methfessel-Paxton smearing, width (Ry)=  0.0500

     Number of k-points >= 100: set verbosity='high' to print them.

     Dense  grid:      869 G-vectors     FFT dimensions: (  15,  15,  15)

     Largest allocated arrays     est. size (Mb)     dimensions
        Kohn-Sham Wavefunctions         0.01 Mb     (      60,    6)
        NL pseudopotentials             0.00 Mb     (      60,    4)
        Each V/rho on FFT grid          0.03 Mb     (    1800)
        Each G-vector array             0.00 Mb     (     435)
        G-vector shells                 0.00 Mb     (      31)
     Largest temporary arrays     est. size (Mb)     dimensions
        Auxiliary wavefunctions         0.02 Mb     (      60,   24)
        Each subspace H/S matrix        0.01 Mb     (      24,   24)
        Each <psi_i|beta_j> matrix      0.00 Mb     (       4,    6)

     The potential is recalculated from file :
     /home/nvarini/espresso_hdf5/espresso/tempdir/_ph0/al.save/charge-density.hdf5

     Starting wfc are    4 atomic +    2 random wfc

     Band Structure Calculation
     Davidson diagonalization with overlap

     ethr =  3.33E-10,  avg # of iterations = 13.3

     total cpu time spent up to now is       11.5 secs

     End of band structure calculation

     Number of k-points >= 100: set verbosity='high' to print the bands.

     the Fermi energy is     8.1818 ev

     Writing output data file al.save

                                                                                

     bravais-lattice index     =            2
     lattice parameter (alat)  =       7.5000  a.u.
     unit-cell volume          =     105.4688 (a.u.)^3
     number of atoms/cell      =            1
     number of atomic types    =            1
     kinetic-energy cut-off    =      15.0000  Ry
     charge density cut-off    =      60.0000  Ry
     convergence threshold     =      1.0E-10
     beta                      =       0.7000
     number of iterations used =            4
     Exchange-correlation      =  SLA  PZ   NOGX NOGC ( 1  1  0  0 0 0)


     celldm(1)=    7.50000  celldm(2)=    0.00000  celldm(3)=    0.00000
     celldm(4)=    0.00000  celldm(5)=    0.00000  celldm(6)=    0.00000

     crystal axes: (cart. coord. in units of alat)
               a(1) = ( -0.5000  0.0000  0.5000 )  
               a(2) = (  0.0000  0.5000  0.5000 )  
               a(3) = ( -0.5000  0.5000  0.0000 )  

     reciprocal axes: (cart. coord. in units 2 pi/alat)
               b(1) = ( -1.0000 -1.0000  1.0000 )  
               b(2) = (  1.0000  1.0000  1.0000 )  
               b(3) = ( -1.0000  1.0000 -1.0000 )  


     Atoms inside the unit cell: 

     Cartesian axes

     site n.  atom      mass           positions (alat units)
        1     Al  26.9800   tau(    1) = (    0.00000    0.00000    0.00000  )

     Computing dynamical matrix for 
                    q = (   1.0000000   0.5000000   0.0000000 )
 
      8 Sym.Ops. (no q -> -q+G )


     G cutoff =   85.4897  (    435 G-vectors)     FFT grid: ( 15, 15, 15)

     number of k points=   174  Methfessel-Paxton smearing, width (Ry)=  0.0500

     PseudoPot. # 1 for Al read from file:
     /home/nvarini/espresso_hdf5/espresso/pseudo/Al.pz-vbc.UPF
     MD5 check sum: 614279c88ff8d45c90147292d03ed420
     Pseudo is Norm-conserving, Zval =  3.0
     Generated by new atomic code, or converted to UPF format
     Using radial grid of  171 points,  2 beta functions with: 
                l(1) =   0
                l(2) =   1

     Mode symmetry, D_2d (-42m) point group:


     Atomic displacements:
     There are   2 irreducible representations

     Representation     1      1 modes -B_2  X_3  W_2  To be done

     Representation     2      2 modes -E    X_5  W_3  To be done



     Alpha used in Ewald sum =   0.7000
     PHONON       :    24.63s CPU        26.38s WALL



     Representation #  1 mode #   1

     Self-consistent Calculation

      iter #   1 total cpu time :    26.6 secs   av.it.:   3.8
      thresh= 1.000E-02 alpha_mix =  0.700 |ddv_scf|^2 =  8.154E-06

      iter #   2 total cpu time :    26.7 secs   av.it.:   5.7
      thresh= 2.856E-04 alpha_mix =  0.700 |ddv_scf|^2 =  1.193E-06

      iter #   3 total cpu time :    26.9 secs   av.it.:   5.5
      thresh= 1.092E-04 alpha_mix =  0.700 |ddv_scf|^2 =  3.327E-09

      iter #   4 total cpu time :    27.1 secs   av.it.:   5.5
      thresh= 5.768E-06 alpha_mix =  0.700 |ddv_scf|^2 =  5.707E-12

     End of self-consistent calculation

     Convergence has been achieved 


     Representation #  2 modes #   2  3

     Self-consistent Calculation

      iter #   1 total cpu time :    27.4 secs   av.it.:   3.7
      thresh= 1.000E-02 alpha_mix =  0.700 |ddv_scf|^2 =  4.585E-06

      iter #   2 total cpu time :    27.7 secs   av.it.:   6.2
      thresh= 2.141E-04 alpha_mix =  0.700 |ddv_scf|^2 =  8.887E-07

      iter #   3 total cpu time :    28.0 secs   av.it.:   5.9
      thresh= 9.427E-05 alpha_mix =  0.700 |ddv_scf|^2 =  8.942E-10

      iter #   4 total cpu time :    28.3 secs   av.it.:   5.9
      thresh= 2.990E-06 alpha_mix =  0.700 |ddv_scf|^2 =  8.443E-13

     End of self-consistent calculation

     Convergence has been achieved 
 
     Number of q in the star =    6
     List of q in the star:
          1   1.000000000   0.500000000   0.000000000
          2  -1.000000000  -0.500000000   0.000000000
          3  -1.000000000   0.000000000   0.500000000
          4  -1.000000000   0.000000000  -0.500000000
          5   0.500000000   1.000000000   0.000000000
          6   0.500000000   0.000000000  -1.000000000

     Diagonalizing the dynamical matrix

     q = (    1.000000000   0.500000000   0.000000000 ) 

 **************************************************************************
     freq (    1) =       6.511835 [THz] =     217.211432 [cm-1]
     freq (    2) =       7.826220 [THz] =     261.054612 [cm-1]
     freq (    3) =       7.826220 [THz] =     261.054612 [cm-1]
 **************************************************************************

     Mode symmetry, D_2d (-42m) point group:

     freq (  1 -  1) =        217.2  [cm-1]   --> B_2  X_3  W_2      
     freq (  2 -  3) =        261.1  [cm-1]   --> E    X_5  W_3      

     Calculation of q =    1.0000000   0.7500000   0.0000000
 
     Parallelization info
     --------------------
     sticks:   dense  smooth     PW     G-vecs:    dense   smooth      PW
     Min          60      60     30                  434      434     165
     Max          61      61     31                  435      435     166
     Sum         121     121     61                  869      869     331
 


     bravais-lattice index     =            2
     lattice parameter (alat)  =       7.5000  a.u.
     unit-cell volume          =     105.4688 (a.u.)^3
     number of atoms/cell      =            1
     number of atomic types    =            1
     number of electrons       =         3.00
     number of Kohn-Sham states=            6
     kinetic-energy cutoff     =      15.0000  Ry
     charge density cutoff     =      60.0000  Ry
     Exchange-correlation      =  SLA  PZ   NOGX NOGC ( 1  1  0  0 0 0)

     celldm(1)=   7.500000  celldm(2)=   0.000000  celldm(3)=   0.000000
     celldm(4)=   0.000000  celldm(5)=   0.000000  celldm(6)=   0.000000

     crystal axes: (cart. coord. in units of alat)
               a(1) = (  -0.500000   0.000000   0.500000 )  
               a(2) = (   0.000000   0.500000   0.500000 )  
               a(3) = (  -0.500000   0.500000   0.000000 )  

     reciprocal axes: (cart. coord. in units 2 pi/alat)
               b(1) = ( -1.000000 -1.000000  1.000000 )  
               b(2) = (  1.000000  1.000000  1.000000 )  
               b(3) = ( -1.000000  1.000000 -1.000000 )  


     PseudoPot. # 1 for Al read from file:
     /home/nvarini/espresso_hdf5/espresso/pseudo/Al.pz-vbc.UPF
     MD5 check sum: 614279c88ff8d45c90147292d03ed420
     Pseudo is Norm-conserving, Zval =  3.0
     Generated by new atomic code, or converted to UPF format
     Using radial grid of  171 points,  2 beta functions with: 
                l(1) =   0
                l(2) =   1

     atomic species   valence    mass     pseudopotential
        Al             3.00    26.98000     Al( 1.00)

     48 Sym. Ops., with inversion, found



   Cartesian axes

     site n.     atom                  positions (alat units)
         1           Al  tau(   1) = (   0.0000000   0.0000000   0.0000000  )

     number of k points=   328  Methfessel-Paxton smearing, width (Ry)=  0.0500

     Number of k-points >= 100: set verbosity='high' to print them.

     Dense  grid:      869 G-vectors     FFT dimensions: (  15,  15,  15)

     Largest allocated arrays     est. size (Mb)     dimensions
        Kohn-Sham Wavefunctions         0.01 Mb     (      60,    6)
        NL pseudopotentials             0.00 Mb     (      60,    4)
        Each V/rho on FFT grid          0.03 Mb     (    1800)
        Each G-vector array             0.00 Mb     (     435)
        G-vector shells                 0.00 Mb     (      31)
     Largest temporary arrays     est. size (Mb)     dimensions
        Auxiliary wavefunctions         0.02 Mb     (      60,   24)
        Each subspace H/S matrix        0.01 Mb     (      24,   24)
        Each <psi_i|beta_j> matrix      0.00 Mb     (       4,    6)

     The potential is recalculated from file :
     /home/nvarini/espresso_hdf5/espresso/tempdir/_ph0/al.save/charge-density.hdf5

     Starting wfc are    4 atomic +    2 random wfc

     Band Structure Calculation
     Davidson diagonalization with overlap

     ethr =  3.33E-10,  avg # of iterations = 13.4

     total cpu time spent up to now is       14.4 secs

     End of band structure calculation

     Number of k-points >= 100: set verbosity='high' to print the bands.

     the Fermi energy is     8.1818 ev

     Writing output data file al.save

                                                                                

     bravais-lattice index     =            2
     lattice parameter (alat)  =       7.5000  a.u.
     unit-cell volume          =     105.4688 (a.u.)^3
     number of atoms/cell      =            1
     number of atomic types    =            1
     kinetic-energy cut-off    =      15.0000  Ry
     charge density cut-off    =      60.0000  Ry
     convergence threshold     =      1.0E-10
     beta                      =       0.7000
     number of iterations used =            4
     Exchange-correlation      =  SLA  PZ   NOGX NOGC ( 1  1  0  0 0 0)


     celldm(1)=    7.50000  celldm(2)=    0.00000  celldm(3)=    0.00000
     celldm(4)=    0.00000  celldm(5)=    0.00000  celldm(6)=    0.00000

     crystal axes: (cart. coord. in units of alat)
               a(1) = ( -0.5000  0.0000  0.5000 )  
               a(2) = (  0.0000  0.5000  0.5000 )  
               a(3) = ( -0.5000  0.5000  0.0000 )  

     reciprocal axes: (cart. coord. in units 2 pi/alat)
               b(1) = ( -1.0000 -1.0000  1.0000 )  
               b(2) = (  1.0000  1.0000  1.0000 )  
               b(3) = ( -1.0000  1.0000 -1.0000 )  


     Atoms inside the unit cell: 

     Cartesian axes

     site n.  atom      mass           positions (alat units)
        1     Al  26.9800   tau(    1) = (    0.00000    0.00000    0.00000  )

     Computing dynamical matrix for 
                    q = (   1.0000000   0.7500000   0.0000000 )
 
      4 Sym.Ops. (no q -> -q+G )


     G cutoff =   85.4897  (    435 G-vectors)     FFT grid: ( 15, 15, 15)

     number of k points=   328  Methfessel-Paxton smearing, width (Ry)=  0.0500

     PseudoPot. # 1 for Al read from file:
     /home/nvarini/espresso_hdf5/espresso/pseudo/Al.pz-vbc.UPF
     MD5 check sum: 614279c88ff8d45c90147292d03ed420
     Pseudo is Norm-conserving, Zval =  3.0
     Generated by new atomic code, or converted to UPF format
     Using radial grid of  171 points,  2 beta functions with: 
                l(1) =   0
                l(2) =   1

     Mode symmetry, C_2v (mm2)  point group:


     Atomic displacements:
     There are   3 irreducible representations

     Representation     1      1 modes -A_1  D_1  S_1  To be done

     Representation     2      1 modes -B_1  D_3  S_3  To be done

     Representation     3      1 modes -B_2  D_4  S_4  To be done



     Alpha used in Ewald sum =   0.7000
     PHONON       :    29.60s CPU        31.64s WALL



     Representation #  1 mode #   1

     Self-consistent Calculation

      iter #   1 total cpu time :    32.0 secs   av.it.:   3.7
      thresh= 1.000E-02 alpha_mix =  0.700 |ddv_scf|^2 =  4.687E-06

      iter #   2 total cpu time :    32.3 secs   av.it.:   5.8
      thresh= 2.165E-04 alpha_mix =  0.700 |ddv_scf|^2 =  9.014E-07

      iter #   3 total cpu time :    32.6 secs   av.it.:   5.5
      thresh= 9.494E-05 alpha_mix =  0.700 |ddv_scf|^2 =  1.713E-08

      iter #   4 total cpu time :    33.0 secs   av.it.:   5.6
      thresh= 1.309E-05 alpha_mix =  0.700 |ddv_scf|^2 =  6.294E-10

      iter #   5 total cpu time :    33.3 secs   av.it.:   5.4
      thresh= 2.509E-06 alpha_mix =  0.700 |ddv_scf|^2 =  2.488E-13

     End of self-consistent calculation

     Convergence has been achieved 


     Representation #  2 mode #   2

     Self-consistent Calculation

      iter #   1 total cpu time :    33.6 secs   av.it.:   3.6
      thresh= 1.000E-02 alpha_mix =  0.700 |ddv_scf|^2 =  3.877E-06

      iter #   2 total cpu time :    33.9 secs   av.it.:   5.5
      thresh= 1.969E-04 alpha_mix =  0.700 |ddv_scf|^2 =  1.924E-07

      iter #   3 total cpu time :    34.3 secs   av.it.:   5.4
      thresh= 4.386E-05 alpha_mix =  0.700 |ddv_scf|^2 =  2.445E-09

      iter #   4 total cpu time :    34.6 secs   av.it.:   5.2
      thresh= 4.945E-06 alpha_mix =  0.700 |ddv_scf|^2 =  2.483E-12

     End of self-consistent calculation

     Convergence has been achieved 


     Representation #  3 mode #   3

     Self-consistent Calculation

      iter #   1 total cpu time :    34.9 secs   av.it.:   3.9
      thresh= 1.000E-02 alpha_mix =  0.700 |ddv_scf|^2 =  5.053E-05

      iter #   2 total cpu time :    35.3 secs   av.it.:   5.4
      thresh= 7.109E-04 alpha_mix =  0.700 |ddv_scf|^2 =  2.001E-05

      iter #   3 total cpu time :    35.6 secs   av.it.:   5.1
      thresh= 4.473E-04 alpha_mix =  0.700 |ddv_scf|^2 =  4.475E-09

      iter #   4 total cpu time :    35.9 secs   av.it.:   5.4
      thresh= 6.690E-06 alpha_mix =  0.700 |ddv_scf|^2 =  1.838E-11

     End of self-consistent calculation

     Convergence has been achieved 
 
     Number of q in the star =   12
     List of q in the star:
          1   1.000000000   0.750000000   0.000000000
          2   0.000000000  -0.750000000   1.000000000
          3  -1.000000000  -0.750000000   0.000000000
          4  -1.000000000   0.000000000   0.750000000
          5  -1.000000000   0.000000000  -0.750000000
          6   0.750000000   1.000000000   0.000000000
          7  -0.750000000   0.000000000  -1.000000000
          8   0.750000000   0.000000000  -1.000000000
          9   0.000000000  -1.000000000  -0.750000000
         10   0.000000000  -1.000000000   0.750000000
         11   0.000000000   0.750000000   1.000000000
         12  -0.750000000  -1.000000000   0.000000000

     Diagonalizing the dynamical matrix

     q = (    1.000000000   0.750000000   0.000000000 ) 

 **************************************************************************
     freq (    1) =       6.514949 [THz] =     217.315320 [cm-1]
     freq (    2) =       6.714526 [THz] =     223.972484 [cm-1]
     freq (    3) =       8.747476 [THz] =     291.784391 [cm-1]
 **************************************************************************

     Mode symmetry, C_2v (mm2)  point group:

     freq (  1 -  1) =        217.3  [cm-1]   --> A_1  D_1  S_1      
     freq (  2 -  2) =        224.0  [cm-1]   --> B_1  D_3  S_3      
     freq (  3 -  3) =        291.8  [cm-1]   --> B_2  D_4  S_4      

     Calculation of q =    1.0000000   1.0000000   0.0000000
 
     Parallelization info
     --------------------
     sticks:   dense  smooth     PW     G-vecs:    dense   smooth      PW
     Min          60      60     30                  434      434     165
     Max          61      61     31                  435      435     166
     Sum         121     121     61                  869      869     331
 


     bravais-lattice index     =            2
     lattice parameter (alat)  =       7.5000  a.u.
     unit-cell volume          =     105.4688 (a.u.)^3
     number of atoms/cell      =            1
     number of atomic types    =            1
     number of electrons       =         3.00
     number of Kohn-Sham states=            6
     kinetic-energy cutoff     =      15.0000  Ry
     charge density cutoff     =      60.0000  Ry
     Exchange-correlation      =  SLA  PZ   NOGX NOGC ( 1  1  0  0 0 0)

     celldm(1)=   7.500000  celldm(2)=   0.000000  celldm(3)=   0.000000
     celldm(4)=   0.000000  celldm(5)=   0.000000  celldm(6)=   0.000000

     crystal axes: (cart. coord. in units of alat)
               a(1) = (  -0.500000   0.000000   0.500000 )  
               a(2) = (   0.000000   0.500000   0.500000 )  
               a(3) = (  -0.500000   0.500000   0.000000 )  

     reciprocal axes: (cart. coord. in units 2 pi/alat)
               b(1) = ( -1.000000 -1.000000  1.000000 )  
               b(2) = (  1.000000  1.000000  1.000000 )  
               b(3) = ( -1.000000  1.000000 -1.000000 )  


     PseudoPot. # 1 for Al read from file:
     /home/nvarini/espresso_hdf5/espresso/pseudo/Al.pz-vbc.UPF
     MD5 check sum: 614279c88ff8d45c90147292d03ed420
     Pseudo is Norm-conserving, Zval =  3.0
     Generated by new atomic code, or converted to UPF format
     Using radial grid of  171 points,  2 beta functions with: 
                l(1) =   0
                l(2) =   1

     atomic species   valence    mass     pseudopotential
        Al             3.00    26.98000     Al( 1.00)

     48 Sym. Ops., with inversion, found



   Cartesian axes

     site n.     atom                  positions (alat units)
         1           Al  tau(   1) = (   0.0000000   0.0000000   0.0000000  )

     number of k points=   118  Methfessel-Paxton smearing, width (Ry)=  0.0500

     Number of k-points >= 100: set verbosity='high' to print them.

     Dense  grid:      869 G-vectors     FFT dimensions: (  15,  15,  15)

     Largest allocated arrays     est. size (Mb)     dimensions
        Kohn-Sham Wavefunctions         0.01 Mb     (      60,    6)
        NL pseudopotentials             0.00 Mb     (      60,    4)
        Each V/rho on FFT grid          0.03 Mb     (    1800)
        Each G-vector array             0.00 Mb     (     435)
        G-vector shells                 0.00 Mb     (      31)
     Largest temporary arrays     est. size (Mb)     dimensions
        Auxiliary wavefunctions         0.02 Mb     (      60,   24)
        Each subspace H/S matrix        0.01 Mb     (      24,   24)
        Each <psi_i|beta_j> matrix      0.00 Mb     (       4,    6)

     The potential is recalculated from file :
     /home/nvarini/espresso_hdf5/espresso/tempdir/_ph0/al.save/charge-density.hdf5

     Starting wfc are    4 atomic +    2 random wfc

     Band Structure Calculation
     Davidson diagonalization with overlap

     ethr =  3.33E-10,  avg # of iterations = 13.2

     total cpu time spent up to now is       16.4 secs

     End of band structure calculation

     Number of k-points >= 100: set verbosity='high' to print the bands.

     the Fermi energy is     8.1818 ev

     Writing output data file al.save

                                                                                

     bravais-lattice index     =            2
     lattice parameter (alat)  =       7.5000  a.u.
     unit-cell volume          =     105.4688 (a.u.)^3
     number of atoms/cell      =            1
     number of atomic types    =            1
     kinetic-energy cut-off    =      15.0000  Ry
     charge density cut-off    =      60.0000  Ry
     convergence threshold     =      1.0E-10
     beta                      =       0.7000
     number of iterations used =            4
     Exchange-correlation      =  SLA  PZ   NOGX NOGC ( 1  1  0  0 0 0)


     celldm(1)=    7.50000  celldm(2)=    0.00000  celldm(3)=    0.00000
     celldm(4)=    0.00000  celldm(5)=    0.00000  celldm(6)=    0.00000

     crystal axes: (cart. coord. in units of alat)
               a(1) = ( -0.5000  0.0000  0.5000 )  
               a(2) = (  0.0000  0.5000  0.5000 )  
               a(3) = ( -0.5000  0.5000  0.0000 )  

     reciprocal axes: (cart. coord. in units 2 pi/alat)
               b(1) = ( -1.0000 -1.0000  1.0000 )  
               b(2) = (  1.0000  1.0000  1.0000 )  
               b(3) = ( -1.0000  1.0000 -1.0000 )  


     Atoms inside the unit cell: 

     Cartesian axes

     site n.  atom      mass           positions (alat units)
        1     Al  26.9800   tau(    1) = (    0.00000    0.00000    0.00000  )

     Computing dynamical matrix for 
                    q = (   1.0000000   1.0000000   0.0000000 )
 
     17 Sym.Ops. (with q -> -q+G )


     G cutoff =   85.4897  (    435 G-vectors)     FFT grid: ( 15, 15, 15)

     number of k points=   118  Methfessel-Paxton smearing, width (Ry)=  0.0500

     PseudoPot. # 1 for Al read from file:
     /home/nvarini/espresso_hdf5/espresso/pseudo/Al.pz-vbc.UPF
     MD5 check sum: 614279c88ff8d45c90147292d03ed420
     Pseudo is Norm-conserving, Zval =  3.0
     Generated by new atomic code, or converted to UPF format
     Using radial grid of  171 points,  2 beta functions with: 
                l(1) =   0
                l(2) =   1

     Mode symmetry, D_4h(4/mmm) point group:


     Atomic displacements:
     There are   2 irreducible representations

     Representation     1      1 modes -A_2u X_4' M_4'  To be done

     Representation     2      2 modes -E_u  X_5' M_5'  To be done



     Alpha used in Ewald sum =   0.7000
     PHONON       :    34.68s CPU        37.69s WALL



     Representation #  1 mode #   1

     Self-consistent Calculation

      iter #   1 total cpu time :    37.8 secs   av.it.:   3.8
      thresh= 1.000E-02 alpha_mix =  0.700 |ddv_scf|^2 =  6.006E-05

      iter #   2 total cpu time :    37.9 secs   av.it.:   5.2
      thresh= 7.750E-04 alpha_mix =  0.700 |ddv_scf|^2 =  2.269E-05

      iter #   3 total cpu time :    38.1 secs   av.it.:   4.9
      thresh= 4.764E-04 alpha_mix =  0.700 |ddv_scf|^2 =  4.464E-09

      iter #   4 total cpu time :    38.2 secs   av.it.:   5.3
      thresh= 6.681E-06 alpha_mix =  0.700 |ddv_scf|^2 =  2.167E-11

     End of self-consistent calculation

     Convergence has been achieved 


     Representation #  2 modes #   2  3

     Self-consistent Calculation

      iter #   1 total cpu time :    38.4 secs   av.it.:   3.5
      thresh= 1.000E-02 alpha_mix =  0.700 |ddv_scf|^2 =  2.794E-07

      iter #   2 total cpu time :    38.6 secs   av.it.:   6.1
      thresh= 5.285E-05 alpha_mix =  0.700 |ddv_scf|^2 =  3.948E-09

      iter #   3 total cpu time :    38.8 secs   av.it.:   5.7
      thresh= 6.283E-06 alpha_mix =  0.700 |ddv_scf|^2 =  3.696E-10

      iter #   4 total cpu time :    39.0 secs   av.it.:   5.5
      thresh= 1.923E-06 alpha_mix =  0.700 |ddv_scf|^2 =  1.531E-14

     End of self-consistent calculation

     Convergence has been achieved 
 
     Number of q in the star =    3
     List of q in the star:
          1   1.000000000   1.000000000   0.000000000
          2   0.000000000  -1.000000000  -1.000000000
          3  -1.000000000   0.000000000  -1.000000000

     Diagonalizing the dynamical matrix

     q = (    1.000000000   1.000000000   0.000000000 ) 

 **************************************************************************
     freq (    1) =       6.051638 [THz] =     201.860932 [cm-1]
     freq (    2) =       6.051638 [THz] =     201.860932 [cm-1]
     freq (    3) =       9.996877 [THz] =     333.459939 [cm-1]
 **************************************************************************

     Mode symmetry, D_4h(4/mmm) point group:

     freq (  1 -  2) =        201.9  [cm-1]   --> E_u  X_5' M_5'     
     freq (  3 -  3) =        333.5  [cm-1]   --> A_2u X_4' M_4'     

     Calculation of q =    0.7500000   0.7500000   0.0000000
 
     Parallelization info
     --------------------
     sticks:   dense  smooth     PW     G-vecs:    dense   smooth      PW
     Min          60      60     30                  434      434     165
     Max          61      61     31                  435      435     166
     Sum         121     121     61                  869      869     331
 


     bravais-lattice index     =            2
     lattice parameter (alat)  =       7.5000  a.u.
     unit-cell volume          =     105.4688 (a.u.)^3
     number of atoms/cell      =            1
     number of atomic types    =            1
     number of electrons       =         3.00
     number of Kohn-Sham states=            6
     kinetic-energy cutoff     =      15.0000  Ry
     charge density cutoff     =      60.0000  Ry
     Exchange-correlation      =  SLA  PZ   NOGX NOGC ( 1  1  0  0 0 0)

     celldm(1)=   7.500000  celldm(2)=   0.000000  celldm(3)=   0.000000
     celldm(4)=   0.000000  celldm(5)=   0.000000  celldm(6)=   0.000000

     crystal axes: (cart. coord. in units of alat)
               a(1) = (  -0.500000   0.000000   0.500000 )  
               a(2) = (   0.000000   0.500000   0.500000 )  
               a(3) = (  -0.500000   0.500000   0.000000 )  

     reciprocal axes: (cart. coord. in units 2 pi/alat)
               b(1) = ( -1.000000 -1.000000  1.000000 )  
               b(2) = (  1.000000  1.000000  1.000000 )  
               b(3) = ( -1.000000  1.000000 -1.000000 )  


     PseudoPot. # 1 for Al read from file:
     /home/nvarini/espresso_hdf5/espresso/pseudo/Al.pz-vbc.UPF
     MD5 check sum: 614279c88ff8d45c90147292d03ed420
     Pseudo is Norm-conserving, Zval =  3.0
     Generated by new atomic code, or converted to UPF format
     Using radial grid of  171 points,  2 beta functions with: 
                l(1) =   0
                l(2) =   1

     atomic species   valence    mass     pseudopotential
        Al             3.00    26.98000     Al( 1.00)

     48 Sym. Ops., with inversion, found



   Cartesian axes

     site n.     atom                  positions (alat units)
         1           Al  tau(   1) = (   0.0000000   0.0000000   0.0000000  )

     number of k points=   328  Methfessel-Paxton smearing, width (Ry)=  0.0500

     Number of k-points >= 100: set verbosity='high' to print them.

     Dense  grid:      869 G-vectors     FFT dimensions: (  15,  15,  15)

     Largest allocated arrays     est. size (Mb)     dimensions
        Kohn-Sham Wavefunctions         0.01 Mb     (      60,    6)
        NL pseudopotentials             0.00 Mb     (      60,    4)
        Each V/rho on FFT grid          0.03 Mb     (    1800)
        Each G-vector array             0.00 Mb     (     435)
        G-vector shells                 0.00 Mb     (      31)
     Largest temporary arrays     est. size (Mb)     dimensions
        Auxiliary wavefunctions         0.02 Mb     (      60,   24)
        Each subspace H/S matrix        0.01 Mb     (      24,   24)
        Each <psi_i|beta_j> matrix      0.00 Mb     (       4,    6)

     The potential is recalculated from file :
     /home/nvarini/espresso_hdf5/espresso/tempdir/_ph0/al.save/charge-density.hdf5

     Starting wfc are    4 atomic +    2 random wfc

     Band Structure Calculation
     Davidson diagonalization with overlap

     ethr =  3.33E-10,  avg # of iterations = 13.4

     total cpu time spent up to now is       19.3 secs

     End of band structure calculation

     Number of k-points >= 100: set verbosity='high' to print the bands.

     the Fermi energy is     8.1818 ev

     Writing output data file al.save

                                                                                

     bravais-lattice index     =            2
     lattice parameter (alat)  =       7.5000  a.u.
     unit-cell volume          =     105.4688 (a.u.)^3
     number of atoms/cell      =            1
     number of atomic types    =            1
     kinetic-energy cut-off    =      15.0000  Ry
     charge density cut-off    =      60.0000  Ry
     convergence threshold     =      1.0E-10
     beta                      =       0.7000
     number of iterations used =            4
     Exchange-correlation      =  SLA  PZ   NOGX NOGC ( 1  1  0  0 0 0)


     celldm(1)=    7.50000  celldm(2)=    0.00000  celldm(3)=    0.00000
     celldm(4)=    0.00000  celldm(5)=    0.00000  celldm(6)=    0.00000

     crystal axes: (cart. coord. in units of alat)
               a(1) = ( -0.5000  0.0000  0.5000 )  
               a(2) = (  0.0000  0.5000  0.5000 )  
               a(3) = ( -0.5000  0.5000  0.0000 )  

     reciprocal axes: (cart. coord. in units 2 pi/alat)
               b(1) = ( -1.0000 -1.0000  1.0000 )  
               b(2) = (  1.0000  1.0000  1.0000 )  
               b(3) = ( -1.0000  1.0000 -1.0000 )  


     Atoms inside the unit cell: 

     Cartesian axes

     site n.  atom      mass           positions (alat units)
        1     Al  26.9800   tau(    1) = (    0.00000    0.00000    0.00000  )

     Computing dynamical matrix for 
                    q = (   0.7500000   0.7500000   0.0000000 )
 
      4 Sym.Ops. (no q -> -q+G )


     G cutoff =   85.4897  (    435 G-vectors)     FFT grid: ( 15, 15, 15)

     number of k points=   328  Methfessel-Paxton smearing, width (Ry)=  0.0500

     PseudoPot. # 1 for Al read from file:
     /home/nvarini/espresso_hdf5/espresso/pseudo/Al.pz-vbc.UPF
     MD5 check sum: 614279c88ff8d45c90147292d03ed420
     Pseudo is Norm-conserving, Zval =  3.0
     Generated by new atomic code, or converted to UPF format
     Using radial grid of  171 points,  2 beta functions with: 
                l(1) =   0
                l(2) =   1

     Mode symmetry, C_2v (mm2)  point group:


     Atomic displacements:
     There are   3 irreducible representations

     Representation     1      1 modes -A_1  D_1  S_1  To be done

     Representation     2      1 modes -B_1  D_3  S_3  Not done in this run

     Representation     3      1 modes -B_2  D_4  S_4  Not done in this run

     Compute atoms:     1,



     Alpha used in Ewald sum =   0.7000
     PHONON       :    39.06s CPU        42.37s WALL



     Representation #  1 mode #   1

     Self-consistent Calculation

      iter #   1 total cpu time :    42.7 secs   av.it.:   4.0
      thresh= 1.000E-02 alpha_mix =  0.700 |ddv_scf|^2 =  2.054E-05

      iter #   2 total cpu time :    43.0 secs   av.it.:   5.7
      thresh= 4.532E-04 alpha_mix =  0.700 |ddv_scf|^2 =  4.713E-06

      iter #   3 total cpu time :    43.4 secs   av.it.:   5.4
      thresh= 2.171E-04 alpha_mix =  0.700 |ddv_scf|^2 =  4.647E-09

      iter #   4 total cpu time :    43.7 secs   av.it.:   5.9
      thresh= 6.817E-06 alpha_mix =  0.700 |ddv_scf|^2 =  6.478E-10

      iter #   5 total cpu time :    44.0 secs   av.it.:   5.6
      thresh= 2.545E-06 alpha_mix =  0.700 |ddv_scf|^2 =  1.257E-12

     End of self-consistent calculation

     Convergence has been achieved 

     Not diagonalizing because representation    2 is not done
 
     init_run     :      0.06s CPU      0.06s WALL (       9 calls)
     electrons    :     15.10s CPU     16.47s WALL (       9 calls)

     Called by init_run:
     wfcinit      :      0.00s CPU      0.00s WALL (       9 calls)
     potinit      :      0.01s CPU      0.01s WALL (       9 calls)

     Called by electrons:
     c_bands      :     15.06s CPU     16.43s WALL (       9 calls)
     v_of_rho     :      0.00s CPU      0.00s WALL (      10 calls)

     Called by c_bands:
     init_us_2    :      0.06s CPU      0.24s WALL (   15973 calls)
     cegterg      :     13.19s CPU     13.67s WALL (    2100 calls)

     Called by sum_band:

     Called by *egterg:
     h_psi        :     15.25s CPU     16.81s WALL (   97999 calls)
     g_psi        :      0.05s CPU      0.11s WALL (   26701 calls)
     cdiaghg      :      5.24s CPU      4.33s WALL (   28695 calls)

     Called by h_psi:
     add_vuspsi   :      0.44s CPU      0.47s WALL (   97999 calls)

     General routines
     calbec       :      1.33s CPU      1.53s WALL (  186492 calls)
     fft          :      0.01s CPU      0.02s WALL (     406 calls)
     ffts         :      0.06s CPU      0.10s WALL (    2862 calls)
     fftw         :     14.81s CPU     16.31s WALL (  601362 calls)
     davcio       :      0.28s CPU      0.39s WALL (   37983 calls)
 
     Parallel routines
     fft_scatter  :      3.84s CPU      4.41s WALL (  604630 calls)
 
     PHONON       :    40.60s CPU        44.03s WALL

     INITIALIZATION: 
     phq_setup    :      0.03s CPU      0.04s WALL (      10 calls)
     phq_init     :      1.06s CPU      1.13s WALL (      10 calls)
 
     phq_init     :      1.06s CPU      1.13s WALL (      10 calls)
     init_vloc    :      0.00s CPU      0.00s WALL (      10 calls)
     init_us_1    :      0.02s CPU      0.02s WALL (      10 calls)
 
     DYNAMICAL MATRIX:
     dynmat0      :      0.41s CPU      0.43s WALL (      10 calls)
     phqscf       :     20.52s CPU     22.34s WALL (      10 calls)
     dynmatrix    :      0.01s CPU      0.02s WALL (      10 calls)
 
     phqscf       :     20.52s CPU     22.34s WALL (      10 calls)
     solve_linter :     20.31s CPU     22.09s WALL (      20 calls)
     drhodv       :      0.17s CPU      0.20s WALL (      20 calls)
 
     dynmat0      :      0.41s CPU      0.43s WALL (      10 calls)
     dynmat_us    :      0.40s CPU      0.42s WALL (      10 calls)
     d2ionq       :      0.00s CPU      0.00s WALL (      10 calls)
 
     dynmat_us    :      0.40s CPU      0.42s WALL (      10 calls)
 
     phqscf       :     20.52s CPU     22.34s WALL (      10 calls)
     solve_linter :     20.31s CPU     22.09s WALL (      20 calls)
 
     solve_linter :     20.31s CPU     22.09s WALL (      20 calls)
     dvqpsi_us    :      1.06s CPU      1.20s WALL (    2750 calls)
     ortho        :      0.22s CPU      0.24s WALL (   11805 calls)
     cgsolve      :      9.95s CPU     10.73s WALL (   11805 calls)
     incdrhoscf   :      1.43s CPU      1.54s WALL (   11805 calls)
     vpsifft      :      0.86s CPU      1.13s WALL (    9055 calls)
     dv_of_drho   :      0.01s CPU      0.01s WALL (     116 calls)
     mix_pot      :      0.03s CPU      0.03s WALL (      87 calls)
     ef_shift     :      0.00s CPU      0.00s WALL (       4 calls)
     localdos     :      0.01s CPU      0.01s WALL (       1 calls)
     psymdvscf    :      0.22s CPU      0.22s WALL (      87 calls)
 
     dvqpsi_us    :      1.06s CPU      1.20s WALL (    2750 calls)
     dvqpsi_us_on :      0.08s CPU      0.07s WALL (    2750 calls)
 
     cgsolve      :      9.95s CPU     10.73s WALL (   11805 calls)
     ch_psi       :      9.14s CPU      9.91s WALL (   67204 calls)
 
     ch_psi       :      9.14s CPU      9.91s WALL (   67204 calls)
     last         :      1.01s CPU      1.13s WALL (   67204 calls)
 
     add_vuspsi   :      0.44s CPU      0.47s WALL (   97999 calls)
 
     incdrhoscf   :      1.43s CPU      1.54s WALL (   11805 calls)
 
 
      General routines
     calbec       :      1.33s CPU      1.53s WALL (  186492 calls)
     fft          :      0.01s CPU      0.02s WALL (     406 calls)
     ffts         :      0.06s CPU      0.10s WALL (    2862 calls)
     fftw         :     14.81s CPU     16.31s WALL (  601362 calls)
     davcio       :      0.28s CPU      0.39s WALL (   37983 calls)
     write_rec    :      0.15s CPU      0.23s WALL (     107 calls)
 
 
     PHONON       :    40.60s CPU        44.03s WALL

 
   This run was terminated on:  11:49: 9  28Jul2016            

=------------------------------------------------------------------------------=
   JOB DONE.
=------------------------------------------------------------------------------=
