
     Program PWSCF v.5.4.0 (svn rev. 12547M) starts on 29Jun2016 at 17:52:19 

     This program is part of the open-source Quantum ESPRESSO suite
     for quantum simulation of materials; please cite
         "P. Giannozzi et al., J. Phys.:Condens. Matter 21 395502 (2009);
          URL http://www.quantum-espresso.org", 
     in publications or presentations arising from this work. More details at
     http://www.quantum-espresso.org/quote
 
           HOST :    x86_64-pc-linux-gnu
           ARCH :    x86_64
             CC :    icc
            CPP :    cpp
            F90 :    gfortran
            F77 :    gfortran
         DFLAGS :    -D__GFORTRAN -D__STD_F95 -D__DFTI -D__MPI -D__PARA -D__HDF5
      BLAS LIBS :    -lmkl_gf_lp64  -lmkl_sequential -lmkl_core
    LAPACK LIBS :    
       FFT LIBS :    
      MASS LIBS :    

     Parallel version (MPI), running on     2 processors
     R & G space division:  proc/nbgrp/npool/nimage =       2
     Waiting for input...
     Reading input from standard input
     Message from routine read_cards :
     DEPRECATED: no units specified in ATOMIC_POSITIONS card
     Message from routine read_cards :
     ATOMIC_POSITIONS: units set to alat

     Current dimensions of program PWSCF are:
     Max number of different atomic species (ntypx) = 10
     Max number of k-points (npk) =  40000
     Max angular momentum in pseudopotentials (lmaxx) =  3

     Atomic positions and unit cell read from directory:
     /home/nvarini/espresso_hdf5/espresso/tempdir/Pt.save/
 

     Subspace diagonalization in iterative solution of the eigenvalue problem:
     a serial algorithm will be used

 
     Parallelization info
     --------------------
     sticks:   dense  smooth     PW     G-vecs:    dense   smooth      PW
     Min         237     111     42                 3426     1112     229
     Max         238     112     43                 3429     1117     230
     Sum         475     223     85                 6855     2229     459
 


     bravais-lattice index     =            2
     lattice parameter (alat)  =       7.4200  a.u.
     unit-cell volume          =     102.1296 (a.u.)^3
     number of atoms/cell      =            1
     number of atomic types    =            1
     number of electrons       =        10.00
     number of Kohn-Sham states=           18
     kinetic-energy cutoff     =      30.0000  Ry
     charge density cutoff     =     250.0000  Ry
     Exchange-correlation      =  SLA  PZ   NOGX NOGC ( 1  1  0  0 0 0)
     Non magnetic calculation with spin-orbit


     celldm(1)=   7.420000  celldm(2)=   0.000000  celldm(3)=   0.000000
     celldm(4)=   0.000000  celldm(5)=   0.000000  celldm(6)=   0.000000

     crystal axes: (cart. coord. in units of alat)
               a(1) = (  -0.500000   0.000000   0.500000 )  
               a(2) = (   0.000000   0.500000   0.500000 )  
               a(3) = (  -0.500000   0.500000   0.000000 )  

     reciprocal axes: (cart. coord. in units 2 pi/alat)
               b(1) = ( -1.000000 -1.000000  1.000000 )  
               b(2) = (  1.000000  1.000000  1.000000 )  
               b(3) = ( -1.000000  1.000000 -1.000000 )  


     PseudoPot. # 1 for Pt read from file:
     /home/nvarini/espresso_hdf5/espresso/pseudo/Pt.rel-pz-n-rrkjus.UPF
     MD5 check sum: 4baafe8ec1942611396c7a5466f52249
     Pseudo is Ultrasoft + core correction, Zval = 10.0
     Generated by new atomic code, or converted to UPF format
     Using radial grid of 1277 points,  6 beta functions with: 
                l(1) =   2
                l(2) =   2
                l(3) =   2
                l(4) =   2
                l(5) =   1
                l(6) =   1
     Q(r) pseudized with 0 coefficients 


     atomic species   valence    mass     pseudopotential
        Pt            10.00   195.07800     Pt( 1.00)

     48 Sym. Ops., with inversion, found



   Cartesian axes

     site n.     atom                  positions (alat units)
         1           Pt  tau(   1) = (   0.0000000   0.0000000   0.0000000  )

     number of k points=     8  Methfessel-Paxton smearing, width (Ry)=  0.0200
                       cart. coord. in units 2pi/alat
        k(    1) = (   0.0000000   0.0000000   0.0000000), wk =   0.1250000
        k(    2) = (   0.1000000   0.0000000   0.0000000), wk =   0.1250000
        k(    3) = (   1.0000000   0.0000000   0.0000000), wk =   0.1250000
        k(    4) = (   0.4000000   0.2000000   0.1000000), wk =   0.1250000
        k(    5) = (   0.4000000   0.4000000   0.0000000), wk =   0.1250000
        k(    6) = (   0.4000000   0.4000000   0.4000000), wk =   0.1250000
        k(    7) = (   0.5000000   0.5000000   0.5000000), wk =   0.1250000
        k(    8) = (   0.7500000   0.7500000   0.0000000), wk =   0.1250000

     Dense  grid:     6855 G-vectors     FFT dimensions: (  27,  27,  27)

     Smooth grid:     2229 G-vectors     FFT dimensions: (  20,  20,  20)

     Largest allocated arrays     est. size (Mb)     dimensions
        Kohn-Sham Wavefunctions         0.08 Mb     (     302,   18)
        NL pseudopotentials             0.06 Mb     (     151,   26)
        Each V/rho on FFT grid          0.16 Mb     (   10206)
        Each G-vector array             0.03 Mb     (    3429)
        G-vector shells                 0.00 Mb     (     119)
     Largest temporary arrays     est. size (Mb)     dimensions
        Auxiliary wavefunctions         0.33 Mb     (     302,   72)
        Each subspace H/S matrix        0.08 Mb     (      72,   72)
        Each <psi_i|beta_j> matrix      0.01 Mb     (      26,   2,   18)

     Check: negative/imaginary core charge=   -0.000004    0.000000

     The potential is recalculated from file :
     /home/nvarini/espresso_hdf5/espresso/tempdir/Pt.save/charge-density.hdf5

     Starting wfc are   12 randomized atomic wfcs +    6 random wfc

     Band Structure Calculation
     Davidson diagonalization with overlap

     ethr =  1.00E-10,  avg # of iterations = 16.8

     total cpu time spent up to now is        1.3 secs

     End of band structure calculation

          k = 0.0000 0.0000 0.0000 (   283 PWs)   bands (ev):

     7.2727   7.2727  13.2979  13.2979  13.2979  13.2979  14.2915  14.2915
    16.1193  16.1193  16.1193  16.1193  34.8402  34.8402  38.3610  38.3610
    39.6539  39.6539

          k = 0.1000 0.0000 0.0000 (   283 PWs)   bands (ev):

     7.4060   7.4060  13.2659  13.2659  13.3547  13.3547  14.3153  14.3153
    16.0337  16.0337  16.1507  16.1507  35.0225  35.0225  38.0754  38.0754
    39.1251  39.1251

          k = 1.0000 0.0000 0.0000 (   286 PWs)   bands (ev):

    10.4418  10.4418  10.8735  10.8735  17.3745  17.3745  17.6778  17.6778
    18.6596  18.6596  19.1027  19.1027  26.2690  26.2690  28.7375  28.7375
    30.2807  30.2807

          k = 0.4000 0.2000 0.1000 (   290 PWs)   bands (ev):

     9.6596   9.6596  12.6769  12.6769  13.6738  13.6738  14.9439  14.9439
    15.7183  15.7183  16.9332  16.9332  32.0504  32.0504  35.7819  35.7819
    37.6057  37.6057

          k = 0.4000 0.4000 0.0000 (   289 PWs)   bands (ev):

    10.6363  10.6363  12.6778  12.6778  13.5168  13.5168  15.0207  15.0207
    15.4549  15.4549  18.0755  18.0755  30.3507  30.3507  32.8954  32.8954
    37.6060  37.6060

          k = 0.4000 0.4000 0.4000 (   281 PWs)   bands (ev):

    10.1556  10.1556  13.2272  13.2272  14.2768  14.2768  15.3893  15.3893
    17.0681  17.0681  17.6323  17.6323  25.3712  25.3712  34.2923  34.2923
    37.6882  37.6882

          k = 0.5000 0.5000 0.5000 (   272 PWs)   bands (ev):

    10.1742  10.1742  13.1425  13.1425  14.1587  14.1587  16.9032  16.9032
    17.2998  17.2998  17.9638  17.9638  23.3579  23.3579  33.8778  33.8778
    36.9542  36.9542

          k = 0.7500 0.7500 0.0000 (   276 PWs)   bands (ev):

    11.2371  11.2371  11.9864  11.9864  14.5671  14.5671  16.2494  16.2494
    17.5338  17.5338  23.3264  23.3264  24.2249  24.2249  27.5537  27.5537
    32.6917  32.6917

     the Fermi energy is    17.4541 ev

     Writing output data file Pt.save
 
     init_run     :      0.43s CPU      0.46s WALL (       1 calls)
     electrons    :      0.66s CPU      0.67s WALL (       1 calls)

     Called by init_run:
     wfcinit      :      0.00s CPU      0.00s WALL (       1 calls)
     potinit      :      0.00s CPU      0.01s WALL (       1 calls)

     Called by electrons:
     c_bands      :      0.66s CPU      0.67s WALL (       1 calls)
     v_of_rho     :      0.00s CPU      0.00s WALL (       1 calls)
     newd         :      0.02s CPU      0.02s WALL (       1 calls)

     Called by c_bands:
     init_us_2    :      0.00s CPU      0.00s WALL (       8 calls)
     cegterg      :      0.61s CPU      0.61s WALL (       9 calls)

     Called by sum_band:

     Called by *egterg:
     h_psi        :      0.39s CPU      0.39s WALL (     151 calls)
     s_psi        :      0.02s CPU      0.02s WALL (     151 calls)
     g_psi        :      0.00s CPU      0.01s WALL (     134 calls)
     cdiaghg      :      0.15s CPU      0.15s WALL (     142 calls)

     Called by h_psi:
     add_vuspsi   :      0.02s CPU      0.02s WALL (     151 calls)

     General routines
     calbec       :      0.01s CPU      0.01s WALL (     151 calls)
     fft          :      0.00s CPU      0.00s WALL (      12 calls)
     ffts         :      0.00s CPU      0.00s WALL (       4 calls)
     fftw         :      0.29s CPU      0.30s WALL (    6364 calls)
     interpolate  :      0.00s CPU      0.00s WALL (       4 calls)
     davcio       :      0.00s CPU      0.00s WALL (       8 calls)
 
     Parallel routines
     fft_scatter  :      0.07s CPU      0.08s WALL (    6380 calls)
 
     PWSCF        :     1.33s CPU         1.37s WALL

 
   This run was terminated on:  17:52:20  29Jun2016            

=------------------------------------------------------------------------------=
   JOB DONE.
=------------------------------------------------------------------------------=
