
     Program PHONON v.5.4.0 (svn rev. 12590M) starts on 21Jul2016 at 15:58:39 

     This program is part of the open-source Quantum ESPRESSO suite
     for quantum simulation of materials; please cite
         "P. Giannozzi et al., J. Phys.:Condens. Matter 21 395502 (2009);
          URL http://www.quantum-espresso.org", 
     in publications or presentations arising from this work. More details at
     http://www.quantum-espresso.org/quote
 
           HOST :    x86_64-pc-linux-gnu
           ARCH :    x86_64
             CC :    icc
            CPP :    cpp
            F90 :    gfortran
            F77 :    gfortran
         DFLAGS :    -D__GFORTRAN -D__STD_F95 -D__DFTI -D__MPI -D__PARA -D__HDF5
      BLAS LIBS :    -lmkl_gf_lp64  -lmkl_sequential -lmkl_core
    LAPACK LIBS :    
       FFT LIBS :    
      MASS LIBS :    

     Parallel version (MPI), running on     2 processors
     R & G space division:  proc/nbgrp/npool/nimage =       2

     Reading data from directory:
     /home/nvarini/espresso_hdf5/espresso/tempdir/nickel.save

   Info: using nr1, nr2, nr3 values from input

   Info: using nr1, nr2, nr3 values from input

     IMPORTANT: XC functional enforced from input :
     Exchange-correlation      =  SLA  PW   PBE  PBE ( 1  4  3  4 0 0)
     Any further DFT definition will be discarded
     Please, verify this is what you really want

               file Ni.pbe-nd-rrkjus.UPF: wavefunction(s)  4S renormalized
 
     Parallelization info
     --------------------
     sticks:   dense  smooth     PW     G-vecs:    dense   smooth      PW
     Min         225      81     30                 3210      705     165
     Max         226      82     31                 3213      706     166
     Sum         451     163     61                 6423     1411     331
 

     Check: negative/imaginary core charge=   -0.000020    0.000000

     Calculation of q =    0.0000000   0.0000000   1.0000000
 
     Parallelization info
     --------------------
     sticks:   dense  smooth     PW     G-vecs:    dense   smooth      PW
     Min         225      81     42                 3210      704     264
     Max         226      82     43                 3213      707     267
     Sum         451     163     85                 6423     1411     531
 


     bravais-lattice index     =            2
     lattice parameter (alat)  =       6.6500  a.u.
     unit-cell volume          =      73.5199 (a.u.)^3
     number of atoms/cell      =            1
     number of atomic types    =            1
     number of electrons       =        10.00
     number of Kohn-Sham states=           18
     kinetic-energy cutoff     =      27.0000  Ry
     charge density cutoff     =     300.0000  Ry
     Exchange-correlation      =  SLA  PW   PBE  PBE ( 1  4  3  4 0 0)
     Noncollinear calculation without spin-orbit


     celldm(1)=   6.650000  celldm(2)=   0.000000  celldm(3)=   0.000000
     celldm(4)=   0.000000  celldm(5)=   0.000000  celldm(6)=   0.000000

     crystal axes: (cart. coord. in units of alat)
               a(1) = (  -0.500000   0.000000   0.500000 )  
               a(2) = (   0.000000   0.500000   0.500000 )  
               a(3) = (  -0.500000   0.500000   0.000000 )  

     reciprocal axes: (cart. coord. in units 2 pi/alat)
               b(1) = ( -1.000000 -1.000000  1.000000 )  
               b(2) = (  1.000000  1.000000  1.000000 )  
               b(3) = ( -1.000000  1.000000 -1.000000 )  


     PseudoPot. # 1 for Ni read from file:
     /home/nvarini/espresso_hdf5/espresso/pseudo/Ni.pbe-nd-rrkjus.UPF
     MD5 check sum: 8081f0a005c9a5470caab1a58e82ecb2
     Pseudo is Ultrasoft + core correction, Zval = 10.0
     Generated by new atomic code, or converted to UPF format
     Using radial grid of 1203 points,  6 beta functions with: 
                l(1) =   0
                l(2) =   0
                l(3) =   1
                l(4) =   1
                l(5) =   2
                l(6) =   2
     Q(r) pseudized with 0 coefficients 


     atomic species   valence    mass     pseudopotential
        Ni            10.00    58.69340     Ni( 1.00)

     16 Sym. Ops., with inversion, found



   Cartesian axes

     site n.     atom                  positions (alat units)
         1           Ni  tau(   1) = (   0.0000000   0.0000000   0.0000000  )

     number of k points=    64  Methfessel-Paxton smearing, width (Ry)=  0.0200
                       cart. coord. in units 2pi/alat
        k(    1) = (  -0.1250000   0.1250000   0.1250000), wk =   0.0312500
        k(    2) = (  -0.1250000   0.1250000   1.1250000), wk =   0.0000000
        k(    3) = (  -0.3750000   0.3750000  -0.1250000), wk =   0.0312500
        k(    4) = (  -0.3750000   0.3750000   0.8750000), wk =   0.0000000
        k(    5) = (   0.3750000  -0.3750000   0.6250000), wk =   0.0312500
        k(    6) = (   0.3750000  -0.3750000   1.6250000), wk =   0.0000000
        k(    7) = (   0.1250000  -0.1250000   0.3750000), wk =   0.0312500
        k(    8) = (   0.1250000  -0.1250000   1.3750000), wk =   0.0000000
        k(    9) = (  -0.1250000   0.6250000   0.1250000), wk =   0.0312500
        k(   10) = (  -0.1250000   0.6250000   1.1250000), wk =   0.0000000
        k(   11) = (   0.6250000  -0.1250000   0.8750000), wk =   0.0312500
        k(   12) = (   0.6250000  -0.1250000   1.8750000), wk =   0.0000000
        k(   13) = (   0.3750000   0.1250000   0.6250000), wk =   0.0312500
        k(   14) = (   0.3750000   0.1250000   1.6250000), wk =   0.0000000
        k(   15) = (  -0.1250000  -0.8750000   0.1250000), wk =   0.0312500
        k(   16) = (  -0.1250000  -0.8750000   1.1250000), wk =   0.0000000
        k(   17) = (  -0.3750000   0.3750000   0.3750000), wk =   0.0312500
        k(   18) = (  -0.3750000   0.3750000   1.3750000), wk =   0.0000000
        k(   19) = (   0.3750000  -0.3750000   1.1250000), wk =   0.0312500
        k(   20) = (   0.3750000  -0.3750000   2.1250000), wk =   0.0000000
        k(   21) = (  -0.1250000  -0.3750000  -0.3750000), wk =   0.0312500
        k(   22) = (  -0.1250000  -0.3750000   0.6250000), wk =   0.0000000
        k(   23) = (   0.3750000  -0.1250000  -0.3750000), wk =   0.0312500
        k(   24) = (   0.3750000  -0.1250000   0.6250000), wk =   0.0000000
        k(   25) = (   0.6250000   0.3750000   0.3750000), wk =   0.0312500
        k(   26) = (   0.6250000   0.3750000   1.3750000), wk =   0.0000000
        k(   27) = (  -0.3750000   0.6250000   0.3750000), wk =   0.0312500
        k(   28) = (  -0.3750000   0.6250000   1.3750000), wk =   0.0000000
        k(   29) = (   0.3750000   0.1250000   0.1250000), wk =   0.0312500
        k(   30) = (   0.3750000   0.1250000   1.1250000), wk =   0.0000000
        k(   31) = (  -0.1250000   0.3750000   0.1250000), wk =   0.0312500
        k(   32) = (  -0.1250000   0.3750000   1.1250000), wk =   0.0000000
        k(   33) = (   0.6250000   0.1250000  -0.1250000), wk =   0.0312500
        k(   34) = (   0.6250000   0.1250000   0.8750000), wk =   0.0000000
        k(   35) = (   0.1250000  -0.1250000   0.6250000), wk =   0.0312500
        k(   36) = (   0.1250000  -0.1250000   1.6250000), wk =   0.0000000
        k(   37) = (   0.8750000   0.1250000   0.6250000), wk =   0.0312500
        k(   38) = (   0.8750000   0.1250000   1.6250000), wk =   0.0000000
        k(   39) = (  -0.1250000   0.8750000   0.6250000), wk =   0.0312500
        k(   40) = (  -0.1250000   0.8750000   1.6250000), wk =   0.0000000
        k(   41) = (   0.8750000   0.6250000  -0.1250000), wk =   0.0312500
        k(   42) = (   0.8750000   0.6250000   0.8750000), wk =   0.0000000
        k(   43) = (  -0.1250000   0.6250000  -0.8750000), wk =   0.0312500
        k(   44) = (  -0.1250000   0.6250000   0.1250000), wk =   0.0000000
        k(   45) = (  -0.6250000   0.8750000  -0.1250000), wk =   0.0312500
        k(   46) = (  -0.6250000   0.8750000   0.8750000), wk =   0.0000000
        k(   47) = (   0.6250000  -0.1250000   0.3750000), wk =   0.0312500
        k(   48) = (   0.6250000  -0.1250000   1.3750000), wk =   0.0000000
        k(   49) = (   0.1250000   0.6250000   0.3750000), wk =   0.0312500
        k(   50) = (   0.1250000   0.6250000   1.3750000), wk =   0.0000000
        k(   51) = (   0.6250000   0.3750000   0.1250000), wk =   0.0312500
        k(   52) = (   0.6250000   0.3750000   1.1250000), wk =   0.0000000
        k(   53) = (   0.1250000   0.3750000  -0.6250000), wk =   0.0312500
        k(   54) = (   0.1250000   0.3750000   0.3750000), wk =   0.0000000
        k(   55) = (  -0.3750000   0.6250000   0.1250000), wk =   0.0312500
        k(   56) = (  -0.3750000   0.6250000   1.1250000), wk =   0.0000000
        k(   57) = (  -0.8750000   0.1250000  -0.1250000), wk =   0.0312500
        k(   58) = (  -0.8750000   0.1250000   0.8750000), wk =   0.0000000
        k(   59) = (   0.1250000  -0.1250000  -0.8750000), wk =   0.0312500
        k(   60) = (   0.1250000  -0.1250000   0.1250000), wk =   0.0000000
        k(   61) = (   1.1250000   0.3750000   0.3750000), wk =   0.0312500
        k(   62) = (   1.1250000   0.3750000   1.3750000), wk =   0.0000000
        k(   63) = (  -0.3750000   1.1250000   0.3750000), wk =   0.0312500
        k(   64) = (  -0.3750000   1.1250000   1.3750000), wk =   0.0000000

     Dense  grid:     6423 G-vectors     FFT dimensions: (  27,  27,  27)

     Smooth grid:     1411 G-vectors     FFT dimensions: (  15,  15,  15)

     Largest allocated arrays     est. size (Mb)     dimensions
        Kohn-Sham Wavefunctions         0.05 Mb     (     188,   18)
        NL pseudopotentials             0.03 Mb     (      94,   18)
        Each V/rho on FFT grid          0.16 Mb     (   10206)
        Each G-vector array             0.02 Mb     (    3213)
        G-vector shells                 0.00 Mb     (     115)
     Largest temporary arrays     est. size (Mb)     dimensions
        Auxiliary wavefunctions         0.21 Mb     (     188,   72)
        Each subspace H/S matrix        0.08 Mb     (      72,   72)
        Each <psi_i|beta_j> matrix      0.01 Mb     (      18,   2,   18)

     Check: negative/imaginary core charge=   -0.000020    0.000000

     The potential is recalculated from file :
     /home/nvarini/espresso_hdf5/espresso/tempdir/_ph0/nickel.save/charge-density.hdf5

     Starting wfc are   12 atomic +    6 random wfc

     Band Structure Calculation
     Davidson diagonalization with overlap

     ethr =  1.00E-10,  avg # of iterations = 14.4

     total cpu time spent up to now is        4.2 secs

     End of band structure calculation

          k =-0.1250 0.1250 0.1250 (   172 PWs)   bands (ev):

     5.8315   5.8622  11.5853  11.8440  11.8440  12.4421  12.7270  12.7270
    12.8769  12.8769  13.5941  13.5941  35.2076  35.2477  38.9943  39.1066
    41.0522  41.0522

          k =-0.1250 0.1250 1.1250 (   176 PWs)   bands (ev):

     9.7854  10.1727  10.2079  10.8947  12.8795  13.3189  13.6376  13.6516
    14.1043  14.5795  16.7852  17.0429  24.9792  25.1865  26.3708  26.4782
    30.0827  30.1088

          k =-0.3750 0.3750-0.1250 (   171 PWs)   bands (ev):

     8.5698   8.6279  11.2587  11.8467  11.9906  12.1420  12.5915  12.7665
    12.9255  13.5912  13.6866  14.4941  27.1010  27.2838  32.6410  32.7206
    39.6159  39.6677

          k =-0.3750 0.3750 0.8750 (   176 PWs)   bands (ev):

    10.3715  10.9708  11.0266  11.5090  11.5659  12.2791  12.5160  13.2421
    13.2831  14.2137  17.7563  18.1084  21.2354  21.5440  27.2349  27.3751
    34.3279  34.4021

          k = 0.3750-0.3750 0.6250 (   172 PWs)   bands (ev):

     9.6666  10.1844  11.5288  11.9959  12.1371  12.2037  12.7459  12.7930
    13.5687  14.4648  15.4868  15.8912  20.4997  20.9051  33.7408  33.7593
    36.0231  36.1036

          k = 0.3750-0.3750 1.6250 (   174 PWs)   bands (ev):

     9.0449   9.3354  11.8384  11.8384  12.3363  12.5973  12.5973  12.6794
    13.3548  13.3548  14.2213  14.2213  23.0008  23.2928  36.9095  37.0565
    39.2743  39.2743

          k = 0.1250-0.1250 0.3750 (   169 PWs)   bands (ev):

     7.3406   7.3561  11.1860  11.9959  12.0401  12.1502  12.7073  12.8317
    13.0161  13.1526  13.4832  13.9132  31.2651  31.3820  36.2492  36.3390
    36.7737  36.8177

          k = 0.1250-0.1250 1.3750 (   178 PWs)   bands (ev):

     9.3853   9.5443  10.5893  11.3412  12.0573  12.7046  12.7240  13.4955
    13.5714  13.7957  14.3248  14.5137  28.1528  28.2843  31.5031  31.5842
    32.3244  32.3902

          k =-0.1250 0.6250 0.1250 (   178 PWs)   bands (ev):

     9.3853   9.5443  10.5893  11.3412  12.0573  12.7046  12.7240  13.4955
    13.5714  13.7957  14.3248  14.5137  28.1528  28.2843  31.5031  31.5842
    32.3244  32.3902

          k =-0.1250 0.6250 1.1250 (   179 PWs)   bands (ev):

    10.3950  10.6491  10.8801  11.3215  11.6322  12.3436  12.9296  13.5296
    13.6405  14.5084  19.0378  19.3251  22.3241  22.5397  26.0086  26.1746
    28.3072  28.4140

          k = 0.6250-0.1250 0.8750 (   179 PWs)   bands (ev):

    10.3950  10.6491  10.8801  11.3215  11.6322  12.3436  12.9296  13.5296
    13.6405  14.5084  19.0378  19.3251  22.3241  22.5397  26.0086  26.1746
    28.3072  28.4140

          k = 0.6250-0.1250 1.8750 (   178 PWs)   bands (ev):

     9.3853   9.5443  10.5893  11.3412  12.0573  12.7046  12.7240  13.4955
    13.5714  13.7957  14.3248  14.5137  28.1528  28.2843  31.5031  31.5842
    32.3244  32.3902

          k = 0.3750 0.1250 0.6250 (   174 PWs)   bands (ev):

    10.0161  10.3529  11.0631  11.4379  11.6755  12.1553  12.5043  13.2468
    13.2531  14.1292  15.3159  15.9172  24.0908  24.3140  29.7522  29.8548
    32.8935  32.9756

          k = 0.3750 0.1250 1.6250 (   171 PWs)   bands (ev):

     8.5698   8.6279  11.2587  11.8467  11.9906  12.1420  12.5915  12.7665
    12.9255  13.5912  13.6866  14.4941  27.1010  27.2838  32.6410  32.7206
    39.6159  39.6677

          k =-0.1250-0.8750 0.1250 (   176 PWs)   bands (ev):

     9.7854  10.1727  10.2079  10.8947  12.8795  13.3189  13.6376  13.6516
    14.1043  14.5795  16.7852  17.0429  24.9792  25.1865  26.3708  26.4782
    30.0827  30.1088

          k =-0.1250-0.8750 1.1250 (   176 PWs)   bands (ev):

     9.7854  10.1727  10.2079  10.8947  12.8795  13.3189  13.6376  13.6516
    14.1043  14.5795  16.7852  17.0429  24.9792  25.1865  26.3708  26.4782
    30.0827  30.1088

          k =-0.3750 0.3750 0.3750 (   174 PWs)   bands (ev):

     9.0449   9.3354  11.8384  11.8384  12.3363  12.5973  12.5973  12.6794
    13.3548  13.3548  14.2213  14.2213  23.0008  23.2928  36.9095  37.0565
    39.2743  39.2743

          k =-0.3750 0.3750 1.3750 (   172 PWs)   bands (ev):

     9.6666  10.1844  11.5288  11.9959  12.1371  12.2037  12.7459  12.7930
    13.5687  14.4648  15.4868  15.8912  20.4997  20.9051  33.7408  33.7593
    36.0231  36.1036

          k = 0.3750-0.3750 1.1250 (   176 PWs)   bands (ev):

    10.3715  10.9708  11.0266  11.5090  11.5659  12.2791  12.5160  13.2421
    13.2831  14.2137  17.7563  18.1084  21.2354  21.5440  27.2349  27.3751
    34.3279  34.4021

          k = 0.3750-0.3750 2.1250 (   171 PWs)   bands (ev):

     8.5698   8.6279  11.2587  11.8467  11.9906  12.1420  12.5915  12.7665
    12.9255  13.5912  13.6866  14.4941  27.1010  27.2838  32.6410  32.7206
    39.6159  39.6677

          k =-0.1250-0.3750-0.3750 (   171 PWs)   bands (ev):

     8.5698   8.6279  11.2587  11.8467  11.9906  12.1420  12.5915  12.7665
    12.9255  13.5912  13.6866  14.4941  27.1010  27.2838  32.6410  32.7206
    39.6159  39.6677

          k =-0.1250-0.3750 0.6250 (   174 PWs)   bands (ev):

    10.0161  10.3529  11.0631  11.4379  11.6755  12.1553  12.5043  13.2468
    13.2531  14.1292  15.3159  15.9172  24.0908  24.3140  29.7522  29.8548
    32.8935  32.9756

          k = 0.3750-0.1250-0.3750 (   171 PWs)   bands (ev):

     8.5698   8.6279  11.2587  11.8467  11.9906  12.1420  12.5915  12.7665
    12.9255  13.5912  13.6866  14.4941  27.1010  27.2838  32.6410  32.7206
    39.6159  39.6677

          k = 0.3750-0.1250 0.6250 (   174 PWs)   bands (ev):

    10.0161  10.3529  11.0631  11.4379  11.6755  12.1553  12.5043  13.2468
    13.2531  14.1292  15.3159  15.9172  24.0908  24.3140  29.7522  29.8548
    32.8935  32.9756

          k = 0.6250 0.3750 0.3750 (   172 PWs)   bands (ev):

     9.6666  10.1844  11.5288  11.9959  12.1371  12.2037  12.7459  12.7930
    13.5687  14.4648  15.4868  15.8912  20.4997  20.9051  33.7408  33.7593
    36.0231  36.1036

          k = 0.6250 0.3750 1.3750 (   172 PWs)   bands (ev):

     9.6666  10.1844  11.5288  11.9959  12.1371  12.2037  12.7459  12.7930
    13.5687  14.4648  15.4868  15.8912  20.4997  20.9051  33.7408  33.7593
    36.0231  36.1036

          k =-0.3750 0.6250 0.3750 (   172 PWs)   bands (ev):

     9.6666  10.1844  11.5288  11.9959  12.1371  12.2037  12.7459  12.7930
    13.5687  14.4648  15.4868  15.8912  20.4997  20.9051  33.7408  33.7593
    36.0231  36.1036

          k =-0.3750 0.6250 1.3750 (   172 PWs)   bands (ev):

     9.6666  10.1844  11.5288  11.9959  12.1371  12.2037  12.7459  12.7930
    13.5687  14.4648  15.4868  15.8912  20.4997  20.9051  33.7408  33.7593
    36.0231  36.1036

          k = 0.3750 0.1250 0.1250 (   169 PWs)   bands (ev):

     7.3406   7.3561  11.1860  11.9959  12.0401  12.1502  12.7073  12.8317
    13.0161  13.1526  13.4832  13.9132  31.2651  31.3820  36.2492  36.3390
    36.7737  36.8177

          k = 0.3750 0.1250 1.1250 (   179 PWs)   bands (ev):

    10.3950  10.6491  10.8801  11.3215  11.6322  12.3436  12.9296  13.5296
    13.6405  14.5084  19.0378  19.3251  22.3241  22.5397  26.0086  26.1746
    28.3072  28.4140

          k =-0.1250 0.3750 0.1250 (   169 PWs)   bands (ev):

     7.3406   7.3561  11.1860  11.9959  12.0401  12.1502  12.7073  12.8317
    13.0161  13.1526  13.4832  13.9132  31.2651  31.3820  36.2492  36.3390
    36.7737  36.8177

          k =-0.1250 0.3750 1.1250 (   179 PWs)   bands (ev):

    10.3950  10.6491  10.8801  11.3215  11.6322  12.3436  12.9296  13.5296
    13.6405  14.5084  19.0378  19.3251  22.3241  22.5397  26.0086  26.1746
    28.3072  28.4140

          k = 0.6250 0.1250-0.1250 (   178 PWs)   bands (ev):

     9.3853   9.5443  10.5893  11.3412  12.0573  12.7046  12.7240  13.4955
    13.5714  13.7957  14.3248  14.5137  28.1528  28.2843  31.5031  31.5842
    32.3244  32.3902

          k = 0.6250 0.1250 0.8750 (   179 PWs)   bands (ev):

    10.3950  10.6491  10.8801  11.3215  11.6322  12.3436  12.9296  13.5296
    13.6405  14.5084  19.0378  19.3251  22.3241  22.5397  26.0086  26.1746
    28.3072  28.4140

          k = 0.1250-0.1250 0.6250 (   178 PWs)   bands (ev):

     9.3853   9.5443  10.5893  11.3412  12.0573  12.7046  12.7240  13.4955
    13.5714  13.7957  14.3248  14.5137  28.1528  28.2843  31.5031  31.5842
    32.3244  32.3902

          k = 0.1250-0.1250 1.6250 (   169 PWs)   bands (ev):

     7.3406   7.3561  11.1860  11.9959  12.0401  12.1502  12.7073  12.8317
    13.0161  13.1526  13.4832  13.9132  31.2651  31.3820  36.2492  36.3390
    36.7737  36.8177

          k = 0.8750 0.1250 0.6250 (   179 PWs)   bands (ev):

    10.3950  10.6491  10.8801  11.3215  11.6322  12.3436  12.9296  13.5296
    13.6405  14.5084  19.0378  19.3251  22.3241  22.5397  26.0086  26.1746
    28.3072  28.4140

          k = 0.8750 0.1250 1.6250 (   179 PWs)   bands (ev):

    10.3950  10.6491  10.8801  11.3215  11.6322  12.3436  12.9296  13.5296
    13.6405  14.5084  19.0378  19.3251  22.3241  22.5397  26.0086  26.1746
    28.3072  28.4140

          k =-0.1250 0.8750 0.6250 (   179 PWs)   bands (ev):

    10.3950  10.6491  10.8801  11.3215  11.6322  12.3436  12.9296  13.5296
    13.6405  14.5084  19.0378  19.3251  22.3241  22.5397  26.0086  26.1746
    28.3072  28.4140

          k =-0.1250 0.8750 1.6250 (   179 PWs)   bands (ev):

    10.3950  10.6491  10.8801  11.3215  11.6322  12.3436  12.9296  13.5296
    13.6405  14.5084  19.0378  19.3251  22.3241  22.5397  26.0086  26.1746
    28.3072  28.4140

          k = 0.8750 0.6250-0.1250 (   179 PWs)   bands (ev):

    10.3950  10.6491  10.8801  11.3215  11.6322  12.3436  12.9296  13.5296
    13.6405  14.5084  19.0378  19.3251  22.3241  22.5397  26.0086  26.1746
    28.3072  28.4140

          k = 0.8750 0.6250 0.8750 (   169 PWs)   bands (ev):

     7.3406   7.3561  11.1860  11.9959  12.0401  12.1502  12.7073  12.8317
    13.0161  13.1526  13.4832  13.9132  31.2651  31.3820  36.2492  36.3390
    36.7737  36.8177

          k =-0.1250 0.6250-0.8750 (   179 PWs)   bands (ev):

    10.3950  10.6491  10.8801  11.3215  11.6322  12.3436  12.9296  13.5296
    13.6405  14.5084  19.0378  19.3251  22.3241  22.5397  26.0086  26.1746
    28.3072  28.4140

          k =-0.1250 0.6250 0.1250 (   178 PWs)   bands (ev):

     9.3853   9.5443  10.5893  11.3412  12.0573  12.7046  12.7240  13.4955
    13.5714  13.7957  14.3248  14.5137  28.1528  28.2843  31.5031  31.5842
    32.3244  32.3902

          k =-0.6250 0.8750-0.1250 (   179 PWs)   bands (ev):

    10.3950  10.6491  10.8801  11.3215  11.6322  12.3436  12.9296  13.5296
    13.6405  14.5084  19.0378  19.3251  22.3241  22.5397  26.0086  26.1746
    28.3072  28.4140

          k =-0.6250 0.8750 0.8750 (   169 PWs)   bands (ev):

     7.3406   7.3561  11.1860  11.9959  12.0401  12.1502  12.7073  12.8317
    13.0161  13.1526  13.4832  13.9132  31.2651  31.3820  36.2492  36.3390
    36.7737  36.8177

          k = 0.6250-0.1250 0.3750 (   174 PWs)   bands (ev):

    10.0161  10.3529  11.0631  11.4379  11.6755  12.1553  12.5043  13.2468
    13.2531  14.1292  15.3159  15.9172  24.0908  24.3140  29.7522  29.8548
    32.8935  32.9756

          k = 0.6250-0.1250 1.3750 (   176 PWs)   bands (ev):

    10.3715  10.9708  11.0266  11.5090  11.5659  12.2791  12.5160  13.2421
    13.2831  14.2137  17.7563  18.1084  21.2354  21.5440  27.2349  27.3751
    34.3279  34.4021

          k = 0.1250 0.6250 0.3750 (   174 PWs)   bands (ev):

    10.0161  10.3529  11.0631  11.4379  11.6755  12.1553  12.5043  13.2468
    13.2531  14.1292  15.3159  15.9172  24.0908  24.3140  29.7522  29.8548
    32.8935  32.9756

          k = 0.1250 0.6250 1.3750 (   176 PWs)   bands (ev):

    10.3715  10.9708  11.0266  11.5090  11.5659  12.2791  12.5160  13.2421
    13.2831  14.2137  17.7563  18.1084  21.2354  21.5440  27.2349  27.3751
    34.3279  34.4021

          k = 0.6250 0.3750 0.1250 (   174 PWs)   bands (ev):

    10.0161  10.3529  11.0631  11.4379  11.6755  12.1553  12.5043  13.2468
    13.2531  14.1292  15.3159  15.9172  24.0908  24.3140  29.7522  29.8548
    32.8935  32.9756

          k = 0.6250 0.3750 1.1250 (   174 PWs)   bands (ev):

    10.0161  10.3529  11.0631  11.4379  11.6755  12.1553  12.5043  13.2468
    13.2531  14.1292  15.3159  15.9172  24.0908  24.3140  29.7522  29.8548
    32.8935  32.9756

          k = 0.1250 0.3750-0.6250 (   174 PWs)   bands (ev):

    10.0161  10.3529  11.0631  11.4379  11.6755  12.1553  12.5043  13.2468
    13.2531  14.1292  15.3159  15.9172  24.0908  24.3140  29.7522  29.8548
    32.8935  32.9756

          k = 0.1250 0.3750 0.3750 (   171 PWs)   bands (ev):

     8.5698   8.6279  11.2587  11.8467  11.9906  12.1420  12.5915  12.7665
    12.9255  13.5912  13.6866  14.4941  27.1010  27.2838  32.6410  32.7206
    39.6159  39.6677

          k =-0.3750 0.6250 0.1250 (   174 PWs)   bands (ev):

    10.0161  10.3529  11.0631  11.4379  11.6755  12.1553  12.5043  13.2468
    13.2531  14.1292  15.3159  15.9172  24.0908  24.3140  29.7522  29.8548
    32.8935  32.9756

          k =-0.3750 0.6250 1.1250 (   174 PWs)   bands (ev):

    10.0161  10.3529  11.0631  11.4379  11.6755  12.1553  12.5043  13.2468
    13.2531  14.1292  15.3159  15.9172  24.0908  24.3140  29.7522  29.8548
    32.8935  32.9756

          k =-0.8750 0.1250-0.1250 (   176 PWs)   bands (ev):

     9.7854  10.1727  10.2079  10.8947  12.8795  13.3189  13.6376  13.6516
    14.1043  14.5795  16.7852  17.0429  24.9792  25.1865  26.3708  26.4782
    30.0827  30.1088

          k =-0.8750 0.1250 0.8750 (   176 PWs)   bands (ev):

     9.7854  10.1727  10.2079  10.8947  12.8795  13.3189  13.6376  13.6516
    14.1043  14.5795  16.7852  17.0429  24.9792  25.1865  26.3708  26.4782
    30.0827  30.1088

          k = 0.1250-0.1250-0.8750 (   176 PWs)   bands (ev):

     9.7854  10.1727  10.2079  10.8947  12.8795  13.3189  13.6376  13.6516
    14.1043  14.5795  16.7852  17.0429  24.9792  25.1865  26.3708  26.4782
    30.0827  30.1088

          k = 0.1250-0.1250 0.1250 (   172 PWs)   bands (ev):

     5.8315   5.8622  11.5853  11.8440  11.8440  12.4421  12.7270  12.7270
    12.8769  12.8769  13.5941  13.5941  35.2076  35.2477  38.9943  39.1066
    41.0522  41.0522

          k = 1.1250 0.3750 0.3750 (   176 PWs)   bands (ev):

    10.3715  10.9708  11.0266  11.5090  11.5659  12.2791  12.5160  13.2421
    13.2831  14.2137  17.7563  18.1084  21.2354  21.5440  27.2349  27.3751
    34.3279  34.4021

          k = 1.1250 0.3750 1.3750 (   174 PWs)   bands (ev):

    10.0161  10.3529  11.0631  11.4379  11.6755  12.1553  12.5043  13.2468
    13.2531  14.1292  15.3159  15.9172  24.0908  24.3140  29.7522  29.8548
    32.8935  32.9756

          k =-0.3750 1.1250 0.3750 (   176 PWs)   bands (ev):

    10.3715  10.9708  11.0266  11.5090  11.5659  12.2791  12.5160  13.2421
    13.2831  14.2137  17.7563  18.1084  21.2354  21.5440  27.2349  27.3751
    34.3279  34.4021

          k =-0.3750 1.1250 1.3750 (   174 PWs)   bands (ev):

    10.0161  10.3529  11.0631  11.4379  11.6755  12.1553  12.5043  13.2468
    13.2531  14.1292  15.3159  15.9172  24.0908  24.3140  29.7522  29.8548
    32.8935  32.9756

     the Fermi energy is    14.2795 ev

     Writing output data file nickel.save

     Fixed quantization axis for GGA:     0.000000    1.000000    0.000000

                                                                                

     bravais-lattice index     =            2
     lattice parameter (alat)  =       6.6500  a.u.
     unit-cell volume          =      73.5199 (a.u.)^3
     number of atoms/cell      =            1
     number of atomic types    =            1
     kinetic-energy cut-off    =      27.0000  Ry
     charge density cut-off    =     300.0000  Ry
     convergence threshold     =      1.0E-16
     beta                      =       0.7000
     number of iterations used =            4
     Exchange-correlation      =  SLA  PW   PBE  PBE ( 1  4  3  4 0 0)
     Noncollinear calculation without spin-orbit

     celldm(1)=    6.65000  celldm(2)=    0.00000  celldm(3)=    0.00000
     celldm(4)=    0.00000  celldm(5)=    0.00000  celldm(6)=    0.00000

     crystal axes: (cart. coord. in units of alat)
               a(1) = ( -0.5000  0.0000  0.5000 )  
               a(2) = (  0.0000  0.5000  0.5000 )  
               a(3) = ( -0.5000  0.5000  0.0000 )  

     reciprocal axes: (cart. coord. in units 2 pi/alat)
               b(1) = ( -1.0000 -1.0000  1.0000 )  
               b(2) = (  1.0000  1.0000  1.0000 )  
               b(3) = ( -1.0000  1.0000 -1.0000 )  


     Atoms inside the unit cell: 

     Cartesian axes

     site n.  atom      mass           positions (alat units)
        1     Ni  58.6934   tau(    1) = (    0.00000    0.00000    0.00000  )

     Computing dynamical matrix for 
                    q = (   0.0000000   0.0000000   1.0000000 )
 
      8 Sym.Ops. (no q -> -q+G )


     G cutoff =  336.0507  (   3213 G-vectors)     FFT grid: ( 27, 27, 27)
     G cutoff =  120.9783  (    707 G-vectors)  smooth grid: ( 15, 15, 15)

     number of k points=    64  Methfessel-Paxton smearing, width (Ry)=  0.0200
                       cart. coord. in units 2pi/alat
        k(    1) = (  -0.1250000   0.1250000   0.1250000), wk =   0.0312500
        k(    2) = (  -0.1250000   0.1250000   1.1250000), wk =   0.0000000
        k(    3) = (  -0.3750000   0.3750000  -0.1250000), wk =   0.0312500
        k(    4) = (  -0.3750000   0.3750000   0.8750000), wk =   0.0000000
        k(    5) = (   0.3750000  -0.3750000   0.6250000), wk =   0.0312500
        k(    6) = (   0.3750000  -0.3750000   1.6250000), wk =   0.0000000
        k(    7) = (   0.1250000  -0.1250000   0.3750000), wk =   0.0312500
        k(    8) = (   0.1250000  -0.1250000   1.3750000), wk =   0.0000000
        k(    9) = (  -0.1250000   0.6250000   0.1250000), wk =   0.0312500
        k(   10) = (  -0.1250000   0.6250000   1.1250000), wk =   0.0000000
        k(   11) = (   0.6250000  -0.1250000   0.8750000), wk =   0.0312500
        k(   12) = (   0.6250000  -0.1250000   1.8750000), wk =   0.0000000
        k(   13) = (   0.3750000   0.1250000   0.6250000), wk =   0.0312500
        k(   14) = (   0.3750000   0.1250000   1.6250000), wk =   0.0000000
        k(   15) = (  -0.1250000  -0.8750000   0.1250000), wk =   0.0312500
        k(   16) = (  -0.1250000  -0.8750000   1.1250000), wk =   0.0000000
        k(   17) = (  -0.3750000   0.3750000   0.3750000), wk =   0.0312500
        k(   18) = (  -0.3750000   0.3750000   1.3750000), wk =   0.0000000
        k(   19) = (   0.3750000  -0.3750000   1.1250000), wk =   0.0312500
        k(   20) = (   0.3750000  -0.3750000   2.1250000), wk =   0.0000000
        k(   21) = (  -0.1250000  -0.3750000  -0.3750000), wk =   0.0312500
        k(   22) = (  -0.1250000  -0.3750000   0.6250000), wk =   0.0000000
        k(   23) = (   0.3750000  -0.1250000  -0.3750000), wk =   0.0312500
        k(   24) = (   0.3750000  -0.1250000   0.6250000), wk =   0.0000000
        k(   25) = (   0.6250000   0.3750000   0.3750000), wk =   0.0312500
        k(   26) = (   0.6250000   0.3750000   1.3750000), wk =   0.0000000
        k(   27) = (  -0.3750000   0.6250000   0.3750000), wk =   0.0312500
        k(   28) = (  -0.3750000   0.6250000   1.3750000), wk =   0.0000000
        k(   29) = (   0.3750000   0.1250000   0.1250000), wk =   0.0312500
        k(   30) = (   0.3750000   0.1250000   1.1250000), wk =   0.0000000
        k(   31) = (  -0.1250000   0.3750000   0.1250000), wk =   0.0312500
        k(   32) = (  -0.1250000   0.3750000   1.1250000), wk =   0.0000000
        k(   33) = (   0.6250000   0.1250000  -0.1250000), wk =   0.0312500
        k(   34) = (   0.6250000   0.1250000   0.8750000), wk =   0.0000000
        k(   35) = (   0.1250000  -0.1250000   0.6250000), wk =   0.0312500
        k(   36) = (   0.1250000  -0.1250000   1.6250000), wk =   0.0000000
        k(   37) = (   0.8750000   0.1250000   0.6250000), wk =   0.0312500
        k(   38) = (   0.8750000   0.1250000   1.6250000), wk =   0.0000000
        k(   39) = (  -0.1250000   0.8750000   0.6250000), wk =   0.0312500
        k(   40) = (  -0.1250000   0.8750000   1.6250000), wk =   0.0000000
        k(   41) = (   0.8750000   0.6250000  -0.1250000), wk =   0.0312500
        k(   42) = (   0.8750000   0.6250000   0.8750000), wk =   0.0000000
        k(   43) = (  -0.1250000   0.6250000  -0.8750000), wk =   0.0312500
        k(   44) = (  -0.1250000   0.6250000   0.1250000), wk =   0.0000000
        k(   45) = (  -0.6250000   0.8750000  -0.1250000), wk =   0.0312500
        k(   46) = (  -0.6250000   0.8750000   0.8750000), wk =   0.0000000
        k(   47) = (   0.6250000  -0.1250000   0.3750000), wk =   0.0312500
        k(   48) = (   0.6250000  -0.1250000   1.3750000), wk =   0.0000000
        k(   49) = (   0.1250000   0.6250000   0.3750000), wk =   0.0312500
        k(   50) = (   0.1250000   0.6250000   1.3750000), wk =   0.0000000
        k(   51) = (   0.6250000   0.3750000   0.1250000), wk =   0.0312500
        k(   52) = (   0.6250000   0.3750000   1.1250000), wk =   0.0000000
        k(   53) = (   0.1250000   0.3750000  -0.6250000), wk =   0.0312500
        k(   54) = (   0.1250000   0.3750000   0.3750000), wk =   0.0000000
        k(   55) = (  -0.3750000   0.6250000   0.1250000), wk =   0.0312500
        k(   56) = (  -0.3750000   0.6250000   1.1250000), wk =   0.0000000
        k(   57) = (  -0.8750000   0.1250000  -0.1250000), wk =   0.0312500
        k(   58) = (  -0.8750000   0.1250000   0.8750000), wk =   0.0000000
        k(   59) = (   0.1250000  -0.1250000  -0.8750000), wk =   0.0312500
        k(   60) = (   0.1250000  -0.1250000   0.1250000), wk =   0.0000000
        k(   61) = (   1.1250000   0.3750000   0.3750000), wk =   0.0312500
        k(   62) = (   1.1250000   0.3750000   1.3750000), wk =   0.0000000
        k(   63) = (  -0.3750000   1.1250000   0.3750000), wk =   0.0312500
        k(   64) = (  -0.3750000   1.1250000   1.3750000), wk =   0.0000000

     PseudoPot. # 1 for Ni read from file:
     /home/nvarini/espresso_hdf5/espresso/pseudo/Ni.pbe-nd-rrkjus.UPF
     MD5 check sum: 8081f0a005c9a5470caab1a58e82ecb2
     Pseudo is Ultrasoft + core correction, Zval = 10.0
     Generated by new atomic code, or converted to UPF format
     Using radial grid of 1203 points,  6 beta functions with: 
                l(1) =   0
                l(2) =   0
                l(3) =   1
                l(4) =   1
                l(5) =   2
                l(6) =   2
     Q(r) pseudized with 0 coefficients 


     Mode symmetry, D_2h (mmm)  point group:


     Atomic displacements:
     There are   3 irreducible representations

     Representation     1      1 modes -B_1u  To be done

     Representation     2      1 modes -B_2u  To be done

     Representation     3      1 modes -B_3u  To be done



     Alpha used in Ewald sum =   2.8000
     PHONON       :     6.57s CPU         6.74s WALL



     Representation #  1 mode #   1

     Self-consistent Calculation

      iter #   1 total cpu time :     7.4 secs   av.it.:   4.9
      thresh= 1.000E-02 alpha_mix =  0.700 |ddv_scf|^2 =  5.456E-05

      iter #   2 total cpu time :     8.2 secs   av.it.:   7.7
      thresh= 7.386E-04 alpha_mix =  0.700 |ddv_scf|^2 =  3.145E-05

      iter #   3 total cpu time :     9.0 secs   av.it.:   7.2
      thresh= 5.608E-04 alpha_mix =  0.700 |ddv_scf|^2 =  4.088E-09

      iter #   4 total cpu time :     9.8 secs   av.it.:   7.2
      thresh= 6.394E-06 alpha_mix =  0.700 |ddv_scf|^2 =  3.621E-11

      iter #   5 total cpu time :    10.5 secs   av.it.:   6.8
      thresh= 6.018E-07 alpha_mix =  0.700 |ddv_scf|^2 =  1.174E-12

      iter #   6 total cpu time :    11.3 secs   av.it.:   7.2
      thresh= 1.083E-07 alpha_mix =  0.700 |ddv_scf|^2 =  6.681E-15

      iter #   7 total cpu time :    12.1 secs   av.it.:   7.5
      thresh= 8.174E-09 alpha_mix =  0.700 |ddv_scf|^2 =  1.136E-16

      iter #   8 total cpu time :    12.9 secs   av.it.:   7.6
      thresh= 1.066E-09 alpha_mix =  0.700 |ddv_scf|^2 =  1.208E-17

     End of self-consistent calculation

     Convergence has been achieved 


     Representation #  2 mode #   2

     Self-consistent Calculation

      iter #   1 total cpu time :    13.6 secs   av.it.:   4.3
      thresh= 1.000E-02 alpha_mix =  0.700 |ddv_scf|^2 =  6.608E-06

      iter #   2 total cpu time :    14.5 secs   av.it.:   7.9
      thresh= 2.571E-04 alpha_mix =  0.700 |ddv_scf|^2 =  2.513E-07

      iter #   3 total cpu time :    15.3 secs   av.it.:   7.8
      thresh= 5.013E-05 alpha_mix =  0.700 |ddv_scf|^2 =  1.492E-09

      iter #   4 total cpu time :    16.2 secs   av.it.:   7.2
      thresh= 3.862E-06 alpha_mix =  0.700 |ddv_scf|^2 =  2.657E-12

      iter #   5 total cpu time :    17.0 secs   av.it.:   7.3
      thresh= 1.630E-07 alpha_mix =  0.700 |ddv_scf|^2 =  6.722E-14

      iter #   6 total cpu time :    17.8 secs   av.it.:   7.7
      thresh= 2.593E-08 alpha_mix =  0.700 |ddv_scf|^2 =  3.911E-15

      iter #   7 total cpu time :    18.7 secs   av.it.:   8.1
      thresh= 6.254E-09 alpha_mix =  0.700 |ddv_scf|^2 =  7.760E-17

      iter #   8 total cpu time :    19.5 secs   av.it.:   7.9
      thresh= 8.809E-10 alpha_mix =  0.700 |ddv_scf|^2 =  1.468E-18

     End of self-consistent calculation

     Convergence has been achieved 


     Representation #  3 mode #   3

     Self-consistent Calculation

      iter #   1 total cpu time :    20.2 secs   av.it.:   4.3
      thresh= 1.000E-02 alpha_mix =  0.700 |ddv_scf|^2 =  6.608E-06

      iter #   2 total cpu time :    21.0 secs   av.it.:   7.9
      thresh= 2.571E-04 alpha_mix =  0.700 |ddv_scf|^2 =  2.514E-07

      iter #   3 total cpu time :    21.8 secs   av.it.:   7.8
      thresh= 5.014E-05 alpha_mix =  0.700 |ddv_scf|^2 =  1.492E-09

      iter #   4 total cpu time :    22.6 secs   av.it.:   7.3
      thresh= 3.862E-06 alpha_mix =  0.700 |ddv_scf|^2 =  2.657E-12

      iter #   5 total cpu time :    23.4 secs   av.it.:   7.3
      thresh= 1.630E-07 alpha_mix =  0.700 |ddv_scf|^2 =  6.719E-14

      iter #   6 total cpu time :    24.2 secs   av.it.:   7.7
      thresh= 2.592E-08 alpha_mix =  0.700 |ddv_scf|^2 =  3.904E-15

      iter #   7 total cpu time :    25.0 secs   av.it.:   8.1
      thresh= 6.249E-09 alpha_mix =  0.700 |ddv_scf|^2 =  7.754E-17

      iter #   8 total cpu time :    25.8 secs   av.it.:   8.0
      thresh= 8.806E-10 alpha_mix =  0.700 |ddv_scf|^2 =  1.271E-18

     End of self-consistent calculation

     Convergence has been achieved 
 
     Number of q in the star =    2
     List of q in the star:
          1   0.000000000   0.000000000   1.000000000
          2   1.000000000   0.000000000   0.000000000

     Diagonalizing the dynamical matrix

     q = (    0.000000000   0.000000000   1.000000000 ) 

 **************************************************************************
     freq (    1) =       6.601349 [THz] =     220.197298 [cm-1]
     freq (    2) =       6.601378 [THz] =     220.198265 [cm-1]
     freq (    3) =       8.921568 [THz] =     297.591464 [cm-1]
 **************************************************************************

     Mode symmetry, D_2h (mmm)  [C_2h (2/m) ] magnetic point group:

     freq (  1 -  1) =        220.2  [cm-1]   --> B_2u               
     freq (  2 -  2) =        220.2  [cm-1]   --> B_3u               
     freq (  3 -  3) =        297.6  [cm-1]   --> B_1u               
 
     init_run     :      0.36s CPU      0.36s WALL (       1 calls)
     electrons    :      3.71s CPU      3.83s WALL (       1 calls)

     Called by init_run:
     wfcinit      :      0.00s CPU      0.00s WALL (       1 calls)
     potinit      :      0.03s CPU      0.03s WALL (       1 calls)

     Called by electrons:
     c_bands      :      3.70s CPU      3.83s WALL (       1 calls)
     v_of_rho     :      0.03s CPU      0.04s WALL (       2 calls)
     newd         :      0.02s CPU      0.02s WALL (       2 calls)

     Called by c_bands:
     init_us_2    :      0.02s CPU      0.05s WALL (    1056 calls)
     cegterg      :      3.42s CPU      3.51s WALL (      69 calls)

     Called by sum_band:

     Called by *egterg:
     h_psi        :     12.25s CPU     12.70s WALL (    7768 calls)
     s_psi        :      0.65s CPU      0.70s WALL (   15248 calls)
     g_psi        :      0.01s CPU      0.02s WALL (     923 calls)
     cdiaghg      :      1.20s CPU      1.21s WALL (     987 calls)

     Called by h_psi:
     add_vuspsi   :      0.36s CPU      0.36s WALL (    7768 calls)

     General routines
     calbec       :      0.75s CPU      0.72s WALL (   16944 calls)
     fft          :      0.23s CPU      0.25s WALL (    1264 calls)
     ffts         :      0.01s CPU      0.01s WALL (     320 calls)
     fftw         :     10.41s CPU     11.14s WALL (  371168 calls)
     interpolate  :      0.04s CPU      0.05s WALL (     212 calls)
     davcio       :      0.10s CPU      0.37s WALL (    2590 calls)
 
     Parallel routines
     fft_scatter  :      2.98s CPU      3.58s WALL (  372752 calls)
 
     PHONON       :    24.73s CPU        25.91s WALL

     INITIALIZATION: 
     phq_setup    :      0.11s CPU      0.11s WALL (       1 calls)
     phq_init     :      1.47s CPU      1.49s WALL (       1 calls)
 
     phq_init     :      1.47s CPU      1.49s WALL (       1 calls)
     set_drhoc    :      0.28s CPU      0.28s WALL (       3 calls)
     init_vloc    :      0.00s CPU      0.00s WALL (       2 calls)
     init_us_1    :      0.57s CPU      0.57s WALL (       2 calls)
     newd         :      0.02s CPU      0.02s WALL (       2 calls)
     dvanqq       :      0.12s CPU      0.12s WALL (       1 calls)
     drho         :      0.88s CPU      0.89s WALL (       1 calls)
 
     DYNAMICAL MATRIX:
     dynmat0      :      0.32s CPU      0.32s WALL (       1 calls)
     phqscf       :     18.15s CPU     19.16s WALL (       1 calls)
     dynmatrix    :      0.00s CPU      0.01s WALL (       1 calls)
 
     phqscf       :     18.15s CPU     19.16s WALL (       1 calls)
     solve_linter :     18.05s CPU     19.05s WALL (       3 calls)
     drhodv       :      0.10s CPU      0.10s WALL (       3 calls)
 
     dynmat0      :      0.32s CPU      0.32s WALL (       1 calls)
     dynmat_us    :      0.11s CPU      0.11s WALL (       1 calls)
     d2ionq       :      0.00s CPU      0.00s WALL (       1 calls)
     dynmatcc     :      0.20s CPU      0.20s WALL (       1 calls)
 
     dynmat_us    :      0.11s CPU      0.11s WALL (       1 calls)
     addusdynmat  :      0.00s CPU      0.00s WALL (       1 calls)
 
     phqscf       :     18.15s CPU     19.16s WALL (       1 calls)
     solve_linter :     18.05s CPU     19.05s WALL (       3 calls)
 
     solve_linter :     18.05s CPU     19.05s WALL (       3 calls)
     dvqpsi_us    :      0.39s CPU      0.40s WALL (      96 calls)
     ortho        :      0.17s CPU      0.20s WALL (     768 calls)
     cgsolve      :     11.86s CPU     12.31s WALL (     768 calls)
     incdrhoscf   :      1.38s CPU      1.45s WALL (     768 calls)
     addusddens   :      0.60s CPU      0.60s WALL (      27 calls)
     vpsifft      :      0.99s CPU      1.06s WALL (     672 calls)
     dv_of_drho   :      0.36s CPU      0.36s WALL (      24 calls)
     mix_pot      :      0.08s CPU      0.12s WALL (      24 calls)
     psymdvscf    :      0.27s CPU      0.27s WALL (      24 calls)
     newdq        :      0.48s CPU      0.49s WALL (      24 calls)
     adddvscf     :      0.18s CPU      0.17s WALL (     672 calls)
     drhodvus     :      0.00s CPU      0.00s WALL (       3 calls)
 
     dvqpsi_us    :      0.39s CPU      0.40s WALL (      96 calls)
     dvqpsi_us_on :      0.17s CPU      0.17s WALL (      96 calls)
 
     cgsolve      :     11.86s CPU     12.31s WALL (     768 calls)
     ch_psi       :     11.57s CPU     12.05s WALL (    6712 calls)
 
     ch_psi       :     11.57s CPU     12.05s WALL (    6712 calls)
     last         :      0.93s CPU      1.00s WALL (    6712 calls)
 
     add_vuspsi   :      0.36s CPU      0.36s WALL (    7768 calls)
 
     incdrhoscf   :      1.38s CPU      1.45s WALL (     768 calls)
 
     drhodvus     :      0.00s CPU      0.00s WALL (       3 calls)
 
      General routines
     calbec       :      0.75s CPU      0.72s WALL (   16944 calls)
     fft          :      0.23s CPU      0.25s WALL (    1264 calls)
     ffts         :      0.01s CPU      0.01s WALL (     320 calls)
     fftw         :     10.41s CPU     11.14s WALL (  371168 calls)
     davcio       :      0.10s CPU      0.37s WALL (    2590 calls)
     write_rec    :      0.06s CPU      0.07s WALL (      27 calls)
 
 
     PHONON       :    24.73s CPU        25.91s WALL

 
   This run was terminated on:  15:59: 5  21Jul2016            

=------------------------------------------------------------------------------=
   JOB DONE.
=------------------------------------------------------------------------------=
