
     Program PHONON v.6.beta (svn rev. 12834M) starts on 25Aug2016 at 11: 6:21 

     This program is part of the open-source Quantum ESPRESSO suite
     for quantum simulation of materials; please cite
         "P. Giannozzi et al., J. Phys.:Condens. Matter 21 395502 (2009);
          URL http://www.quantum-espresso.org", 
     in publications or presentations arising from this work. More details at
     http://www.quantum-espresso.org/quote
 
           HOST :    x86_64-pc-linux-gnu
           ARCH :    x86_64
             CC :    icc
            CPP :    cpp
            F90 :    ifort
            F77 :    ifort
         DFLAGS :    -D__INTEL -D__FFTW -D__MPI -D__PARA -D__HDF5
      BLAS LIBS :    -lmkl_intel_lp64  -lmkl_sequential -lmkl_core
    LAPACK LIBS :    
       FFT LIBS :    
      MASS LIBS :    

     Parallel version (MPI), running on     2 processors
     R & G space division:  proc/nbgrp/npool/nimage =       2

     Reading data from directory:
     /home/nvarini/espresso_hdf5/espresso/tempdir/nickel.save

   Info: using nr1, nr2, nr3 values from input

   Info: using nr1, nr2, nr3 values from input

     IMPORTANT: XC functional enforced from input :
     Exchange-correlation      =  SLA  PW   PBE  PBE ( 1  4  3  4 0 0)
     Any further DFT definition will be discarded
     Please, verify this is what you really want

               file Ni.pbe-nd-rrkjus.UPF: wavefunction(s)  4S renormalized
 
     Parallelization info
     --------------------
     sticks:   dense  smooth     PW     G-vecs:    dense   smooth      PW
     Min         225      81     30                 3210      705     165
     Max         226      82     31                 3213      706     166
     Sum         451     163     61                 6423     1411     331
 

     Check: negative/imaginary core charge=   -0.000020    0.000000

     Calculation of q =    0.0000000   0.0000000   1.0000000
 
     Parallelization info
     --------------------
     sticks:   dense  smooth     PW     G-vecs:    dense   smooth      PW
     Min         225      81     42                 3210      705     264
     Max         226      82     43                 3213      706     267
     Sum         451     163     85                 6423     1411     531
 


     bravais-lattice index     =            2
     lattice parameter (alat)  =       6.6500  a.u.
     unit-cell volume          =      73.5199 (a.u.)^3
     number of atoms/cell      =            1
     number of atomic types    =            1
     number of electrons       =        10.00
     number of Kohn-Sham states=           18
     kinetic-energy cutoff     =      27.0000  Ry
     charge density cutoff     =     300.0000  Ry
     Exchange-correlation      =  SLA  PW   PBE  PBE ( 1  4  3  4 0 0)
     Noncollinear calculation without spin-orbit


     celldm(1)=   6.650000  celldm(2)=   0.000000  celldm(3)=   0.000000
     celldm(4)=   0.000000  celldm(5)=   0.000000  celldm(6)=   0.000000

     crystal axes: (cart. coord. in units of alat)
               a(1) = (  -0.500000   0.000000   0.500000 )  
               a(2) = (   0.000000   0.500000   0.500000 )  
               a(3) = (  -0.500000   0.500000   0.000000 )  

     reciprocal axes: (cart. coord. in units 2 pi/alat)
               b(1) = ( -1.000000 -1.000000  1.000000 )  
               b(2) = (  1.000000  1.000000  1.000000 )  
               b(3) = ( -1.000000  1.000000 -1.000000 )  


     PseudoPot. # 1 for Ni read from file:
     /home/nvarini/espresso_hdf5/espresso/pseudo/Ni.pbe-nd-rrkjus.UPF
     MD5 check sum: 8081f0a005c9a5470caab1a58e82ecb2
     Pseudo is Ultrasoft + core correction, Zval = 10.0
     Generated by new atomic code, or converted to UPF format
     Using radial grid of 1203 points,  6 beta functions with: 
                l(1) =   0
                l(2) =   0
                l(3) =   1
                l(4) =   1
                l(5) =   2
                l(6) =   2
     Q(r) pseudized with 0 coefficients 


     atomic species   valence    mass     pseudopotential
        Ni            10.00    58.69340     Ni( 1.00)

     16 Sym. Ops., with inversion, found



   Cartesian axes

     site n.     atom                  positions (alat units)
         1           Ni  tau(   1) = (   0.0000000   0.0000000   0.0000000  )

     number of k points=    64  Methfessel-Paxton smearing, width (Ry)=  0.0200
                       cart. coord. in units 2pi/alat
        k(    1) = (  -0.1250000   0.1250000   0.1250000), wk =   0.0312500
        k(    2) = (  -0.1250000   0.1250000   1.1250000), wk =   0.0000000
        k(    3) = (  -0.3750000   0.3750000  -0.1250000), wk =   0.0312500
        k(    4) = (  -0.3750000   0.3750000   0.8750000), wk =   0.0000000
        k(    5) = (   0.3750000  -0.3750000   0.6250000), wk =   0.0312500
        k(    6) = (   0.3750000  -0.3750000   1.6250000), wk =   0.0000000
        k(    7) = (   0.1250000  -0.1250000   0.3750000), wk =   0.0312500
        k(    8) = (   0.1250000  -0.1250000   1.3750000), wk =   0.0000000
        k(    9) = (  -0.1250000   0.6250000   0.1250000), wk =   0.0312500
        k(   10) = (  -0.1250000   0.6250000   1.1250000), wk =   0.0000000
        k(   11) = (   0.6250000  -0.1250000   0.8750000), wk =   0.0312500
        k(   12) = (   0.6250000  -0.1250000   1.8750000), wk =   0.0000000
        k(   13) = (   0.3750000   0.1250000   0.6250000), wk =   0.0312500
        k(   14) = (   0.3750000   0.1250000   1.6250000), wk =   0.0000000
        k(   15) = (  -0.1250000  -0.8750000   0.1250000), wk =   0.0312500
        k(   16) = (  -0.1250000  -0.8750000   1.1250000), wk =   0.0000000
        k(   17) = (  -0.3750000   0.3750000   0.3750000), wk =   0.0312500
        k(   18) = (  -0.3750000   0.3750000   1.3750000), wk =   0.0000000
        k(   19) = (   0.3750000  -0.3750000   1.1250000), wk =   0.0312500
        k(   20) = (   0.3750000  -0.3750000   2.1250000), wk =   0.0000000
        k(   21) = (  -0.1250000  -0.3750000  -0.3750000), wk =   0.0312500
        k(   22) = (  -0.1250000  -0.3750000   0.6250000), wk =   0.0000000
        k(   23) = (   0.3750000  -0.1250000  -0.3750000), wk =   0.0312500
        k(   24) = (   0.3750000  -0.1250000   0.6250000), wk =   0.0000000
        k(   25) = (   0.6250000   0.3750000   0.3750000), wk =   0.0312500
        k(   26) = (   0.6250000   0.3750000   1.3750000), wk =   0.0000000
        k(   27) = (  -0.3750000   0.6250000   0.3750000), wk =   0.0312500
        k(   28) = (  -0.3750000   0.6250000   1.3750000), wk =   0.0000000
        k(   29) = (   0.3750000   0.1250000   0.1250000), wk =   0.0312500
        k(   30) = (   0.3750000   0.1250000   1.1250000), wk =   0.0000000
        k(   31) = (  -0.1250000   0.3750000   0.1250000), wk =   0.0312500
        k(   32) = (  -0.1250000   0.3750000   1.1250000), wk =   0.0000000
        k(   33) = (   0.6250000   0.1250000  -0.1250000), wk =   0.0312500
        k(   34) = (   0.6250000   0.1250000   0.8750000), wk =   0.0000000
        k(   35) = (   0.1250000  -0.1250000   0.6250000), wk =   0.0312500
        k(   36) = (   0.1250000  -0.1250000   1.6250000), wk =   0.0000000
        k(   37) = (   0.8750000   0.1250000   0.6250000), wk =   0.0312500
        k(   38) = (   0.8750000   0.1250000   1.6250000), wk =   0.0000000
        k(   39) = (  -0.1250000   0.8750000   0.6250000), wk =   0.0312500
        k(   40) = (  -0.1250000   0.8750000   1.6250000), wk =   0.0000000
        k(   41) = (   0.8750000   0.6250000  -0.1250000), wk =   0.0312500
        k(   42) = (   0.8750000   0.6250000   0.8750000), wk =   0.0000000
        k(   43) = (  -0.1250000   0.6250000  -0.8750000), wk =   0.0312500
        k(   44) = (  -0.1250000   0.6250000   0.1250000), wk =   0.0000000
        k(   45) = (  -0.6250000   0.8750000  -0.1250000), wk =   0.0312500
        k(   46) = (  -0.6250000   0.8750000   0.8750000), wk =   0.0000000
        k(   47) = (   0.6250000  -0.1250000   0.3750000), wk =   0.0312500
        k(   48) = (   0.6250000  -0.1250000   1.3750000), wk =   0.0000000
        k(   49) = (   0.1250000   0.6250000   0.3750000), wk =   0.0312500
        k(   50) = (   0.1250000   0.6250000   1.3750000), wk =   0.0000000
        k(   51) = (   0.6250000   0.3750000   0.1250000), wk =   0.0312500
        k(   52) = (   0.6250000   0.3750000   1.1250000), wk =   0.0000000
        k(   53) = (   0.1250000   0.3750000  -0.6250000), wk =   0.0312500
        k(   54) = (   0.1250000   0.3750000   0.3750000), wk =   0.0000000
        k(   55) = (  -0.3750000   0.6250000   0.1250000), wk =   0.0312500
        k(   56) = (  -0.3750000   0.6250000   1.1250000), wk =   0.0000000
        k(   57) = (  -0.8750000   0.1250000  -0.1250000), wk =   0.0312500
        k(   58) = (  -0.8750000   0.1250000   0.8750000), wk =   0.0000000
        k(   59) = (   0.1250000  -0.1250000  -0.8750000), wk =   0.0312500
        k(   60) = (   0.1250000  -0.1250000   0.1250000), wk =   0.0000000
        k(   61) = (   1.1250000   0.3750000   0.3750000), wk =   0.0312500
        k(   62) = (   1.1250000   0.3750000   1.3750000), wk =   0.0000000
        k(   63) = (  -0.3750000   1.1250000   0.3750000), wk =   0.0312500
        k(   64) = (  -0.3750000   1.1250000   1.3750000), wk =   0.0000000

     Dense  grid:     6423 G-vectors     FFT dimensions: (  25,  25,  25)

     Smooth grid:     1411 G-vectors     FFT dimensions: (  15,  15,  15)

     Estimated max dynamical RAM per process >       2.74Mb

     Estimated total allocated dynamical RAM >       5.47Mb

     Check: negative/imaginary core charge=   -0.000021    0.000000

 %%%%%%%%%%%%%%%%%%%%%%%%%%%%%%%%%%%%%%%%%%%%%%%%%%%%%%%%%%%%%%%%%%%%%%%%%%%%%%
     Error in routine read_rho_xml (1):
     dimensions do not match
 %%%%%%%%%%%%%%%%%%%%%%%%%%%%%%%%%%%%%%%%%%%%%%%%%%%%%%%%%%%%%%%%%%%%%%%%%%%%%%

     stopping ...
