
     Program PHONON v.6.beta (svn rev. 12834M) starts on 25Aug2016 at 11: 6: 8 

     This program is part of the open-source Quantum ESPRESSO suite
     for quantum simulation of materials; please cite
         "P. Giannozzi et al., J. Phys.:Condens. Matter 21 395502 (2009);
          URL http://www.quantum-espresso.org", 
     in publications or presentations arising from this work. More details at
     http://www.quantum-espresso.org/quote
 
           HOST :    x86_64-pc-linux-gnu
           ARCH :    x86_64
             CC :    icc
            CPP :    cpp
            F90 :    ifort
            F77 :    ifort
         DFLAGS :    -D__INTEL -D__FFTW -D__MPI -D__PARA -D__HDF5
      BLAS LIBS :    -lmkl_intel_lp64  -lmkl_sequential -lmkl_core
    LAPACK LIBS :    
       FFT LIBS :    
      MASS LIBS :    

     Parallel version (MPI), running on     2 processors
     R & G space division:  proc/nbgrp/npool/nimage =       2

     Reading data from directory:
     /home/nvarini/espresso_hdf5/espresso/tempdir/nickel.save

   Info: using nr1, nr2, nr3 values from input

   Info: using nr1, nr2, nr3 values from input

     IMPORTANT: XC functional enforced from input :
     Exchange-correlation      =  SLA  PW   PBE  PBE ( 1  4  3  4 0 0)
     Any further DFT definition will be discarded
     Please, verify this is what you really want

               file Ni.pbe-nd-rrkjus.UPF: wavefunction(s)  4S renormalized
 
     Parallelization info
     --------------------
     sticks:   dense  smooth     PW     G-vecs:    dense   smooth      PW
     Min         225      81     30                 3210      705     165
     Max         226      82     31                 3213      706     166
     Sum         451     163     61                 6423     1411     331
 

     Check: negative/imaginary core charge=   -0.000020    0.000000

     Calculation of q =    0.0000000   0.0000000   0.0000000

     Fixed quantization axis for GGA:     0.000000    1.000000    0.000000

                                                                                

     bravais-lattice index     =            2
     lattice parameter (alat)  =       6.6500  a.u.
     unit-cell volume          =      73.5199 (a.u.)^3
     number of atoms/cell      =            1
     number of atomic types    =            1
     kinetic-energy cut-off    =      27.0000  Ry
     charge density cut-off    =     300.0000  Ry
     convergence threshold     =      1.0E-16
     beta                      =       0.7000
     number of iterations used =            4
     Exchange-correlation      =  SLA  PW   PBE  PBE ( 1  4  3  4 0 0)
     Noncollinear calculation without spin-orbit

     celldm(1)=    6.65000  celldm(2)=    0.00000  celldm(3)=    0.00000
     celldm(4)=    0.00000  celldm(5)=    0.00000  celldm(6)=    0.00000

     crystal axes: (cart. coord. in units of alat)
               a(1) = ( -0.5000  0.0000  0.5000 )  
               a(2) = (  0.0000  0.5000  0.5000 )  
               a(3) = ( -0.5000  0.5000  0.0000 )  

     reciprocal axes: (cart. coord. in units 2 pi/alat)
               b(1) = ( -1.0000 -1.0000  1.0000 )  
               b(2) = (  1.0000  1.0000  1.0000 )  
               b(3) = ( -1.0000  1.0000 -1.0000 )  


     Atoms inside the unit cell: 

     Cartesian axes

     site n.  atom      mass           positions (alat units)
        1     Ni  58.6934   tau(    1) = (    0.00000    0.00000    0.00000  )

     Computing dynamical matrix for 
                    q = (   0.0000000   0.0000000   0.0000000 )
 
     16 Sym.Ops. (no q -> -q+G )


     G cutoff =  336.0507  (   3213 G-vectors)     FFT grid: ( 27, 27, 27)
     G cutoff =  120.9783  (    705 G-vectors)  smooth grid: ( 15, 15, 15)

     number of k points=    20  Methfessel-Paxton smearing, width (Ry)=  0.0200
                       cart. coord. in units 2pi/alat
        k(    1) = (  -0.1250000   0.1250000   0.1250000), wk =   0.0312500
        k(    2) = (  -0.3750000   0.3750000  -0.1250000), wk =   0.0625000
        k(    3) = (   0.3750000  -0.3750000   0.6250000), wk =   0.0625000
        k(    4) = (   0.1250000  -0.1250000   0.3750000), wk =   0.0625000
        k(    5) = (  -0.1250000   0.6250000   0.1250000), wk =   0.0312500
        k(    6) = (   0.6250000  -0.1250000   0.8750000), wk =   0.0625000
        k(    7) = (   0.3750000   0.1250000   0.6250000), wk =   0.0625000
        k(    8) = (  -0.1250000  -0.8750000   0.1250000), wk =   0.0312500
        k(    9) = (  -0.3750000   0.3750000   0.3750000), wk =   0.0312500
        k(   10) = (   0.3750000  -0.3750000   1.1250000), wk =   0.0625000
        k(   11) = (   0.3750000  -0.1250000  -0.3750000), wk =   0.0312500
        k(   12) = (  -0.3750000   0.6250000   0.3750000), wk =   0.0312500
        k(   13) = (  -0.1250000   0.3750000   0.1250000), wk =   0.0312500
        k(   14) = (   0.6250000   0.1250000  -0.1250000), wk =   0.0625000
        k(   15) = (  -0.1250000   0.8750000   0.6250000), wk =   0.0625000
        k(   16) = (   0.8750000   0.6250000  -0.1250000), wk =   0.0625000
        k(   17) = (   0.1250000   0.6250000   0.3750000), wk =   0.0625000
        k(   18) = (   0.6250000   0.3750000   0.1250000), wk =   0.0625000
        k(   19) = (  -0.8750000   0.1250000  -0.1250000), wk =   0.0625000
        k(   20) = (  -0.3750000   1.1250000   0.3750000), wk =   0.0312500

     PseudoPot. # 1 for Ni read from file:
     /home/nvarini/espresso_hdf5/espresso/pseudo/Ni.pbe-nd-rrkjus.UPF
     MD5 check sum: 8081f0a005c9a5470caab1a58e82ecb2
     Pseudo is Ultrasoft + core correction, Zval = 10.0
     Generated by new atomic code, or converted to UPF format
     Using radial grid of 1203 points,  6 beta functions with: 
                l(1) =   0
                l(2) =   0
                l(3) =   1
                l(4) =   1
                l(5) =   2
                l(6) =   2
     Q(r) pseudized with 0 coefficients 


     Mode symmetry, D_4h(4/mmm) point group:


     Atomic displacements:
     There are   2 irreducible representations

     Representation     1      1 modes -A_2u X_4' M_4'  To be done

     Representation     2      2 modes -E_u  X_5' M_5'  To be done



     Alpha used in Ewald sum =   2.8000
     PHONON       :     1.94s CPU         1.98s WALL



     Representation #  1 mode #   1

     Self-consistent Calculation
 
     Pert. #  1: Fermi energy shift (Ry) =     0.0000E+00     0.0000E+00

      iter #   1 total cpu time :     2.5 secs   av.it.:   3.8
      thresh= 1.000E-02 alpha_mix =  0.700 |ddv_scf|^2 =  2.657E-06
 
     Pert. #  1: Fermi energy shift (Ry) =     0.0000E+00     0.0000E+00

      iter #   2 total cpu time :     3.0 secs   av.it.:   7.3
      thresh= 1.630E-04 alpha_mix =  0.700 |ddv_scf|^2 =  1.183E-08
 
     Pert. #  1: Fermi energy shift (Ry) =     0.0000E+00     0.0000E+00

      iter #   3 total cpu time :     3.5 secs   av.it.:   6.7
      thresh= 1.088E-05 alpha_mix =  0.700 |ddv_scf|^2 =  1.097E-09
 
     Pert. #  1: Fermi energy shift (Ry) =     0.0000E+00     0.0000E+00

      iter #   4 total cpu time :     4.0 secs   av.it.:   6.5
      thresh= 3.312E-06 alpha_mix =  0.700 |ddv_scf|^2 =  1.708E-12
 
     Pert. #  1: Fermi energy shift (Ry) =     0.0000E+00     0.0000E+00

      iter #   5 total cpu time :     4.5 secs   av.it.:   7.1
      thresh= 1.307E-07 alpha_mix =  0.700 |ddv_scf|^2 =  2.223E-14
 
     Pert. #  1: Fermi energy shift (Ry) =     0.0000E+00     0.0000E+00

      iter #   6 total cpu time :     5.0 secs   av.it.:   7.3
      thresh= 1.491E-08 alpha_mix =  0.700 |ddv_scf|^2 =  1.319E-15
 
     Pert. #  1: Fermi energy shift (Ry) =     0.0000E+00     0.0000E+00

      iter #   7 total cpu time :     5.5 secs   av.it.:   7.5
      thresh= 3.631E-09 alpha_mix =  0.700 |ddv_scf|^2 =  1.289E-17

     End of self-consistent calculation

     Convergence has been achieved 


     Representation #  2 modes #   2  3

     Self-consistent Calculation
 
     Pert. #  1: Fermi energy shift (Ry) =     0.0000E+00     0.0000E+00
     Pert. #  2: Fermi energy shift (Ry) =     2.0195E-28    -1.2705E-21

      iter #   1 total cpu time :     6.4 secs   av.it.:   3.8
      thresh= 1.000E-02 alpha_mix =  0.700 |ddv_scf|^2 =  6.643E-07
 
     Pert. #  1: Fermi energy shift (Ry) =    -1.6156E-27     6.6174E-24
     Pert. #  2: Fermi energy shift (Ry) =     5.6546E-27     0.0000E+00

      iter #   2 total cpu time :     7.4 secs   av.it.:   8.4
      thresh= 8.151E-05 alpha_mix =  0.700 |ddv_scf|^2 =  2.959E-09
 
     Pert. #  1: Fermi energy shift (Ry) =     0.0000E+00     0.0000E+00
     Pert. #  2: Fermi energy shift (Ry) =    -1.6156E-27    -4.9631E-24

      iter #   3 total cpu time :     8.4 secs   av.it.:   7.6
      thresh= 5.439E-06 alpha_mix =  0.700 |ddv_scf|^2 =  2.743E-10
 
     Pert. #  1: Fermi energy shift (Ry) =     0.0000E+00     3.3087E-24
     Pert. #  2: Fermi energy shift (Ry) =    -1.6156E-27    -1.6544E-24

      iter #   4 total cpu time :     9.4 secs   av.it.:   7.5
      thresh= 1.656E-06 alpha_mix =  0.700 |ddv_scf|^2 =  4.256E-13
 
     Pert. #  1: Fermi energy shift (Ry) =     0.0000E+00     3.3087E-24
     Pert. #  2: Fermi energy shift (Ry) =    -8.0779E-28    -6.6174E-24

      iter #   5 total cpu time :    10.5 secs   av.it.:   8.1
      thresh= 6.524E-08 alpha_mix =  0.700 |ddv_scf|^2 =  5.519E-15
 
     Pert. #  1: Fermi energy shift (Ry) =     0.0000E+00     0.0000E+00
     Pert. #  2: Fermi energy shift (Ry) =    -8.0779E-28     0.0000E+00

      iter #   6 total cpu time :    11.5 secs   av.it.:   8.3
      thresh= 7.429E-09 alpha_mix =  0.700 |ddv_scf|^2 =  3.293E-16
 
     Pert. #  1: Fermi energy shift (Ry) =     0.0000E+00     0.0000E+00
     Pert. #  2: Fermi energy shift (Ry) =     8.0779E-28    -1.6544E-24

      iter #   7 total cpu time :    12.6 secs   av.it.:   8.4
      thresh= 1.815E-09 alpha_mix =  0.700 |ddv_scf|^2 =  3.206E-18

     End of self-consistent calculation

     Convergence has been achieved 
 
     Number of q in the star =    1
     List of q in the star:
          1   0.000000000   0.000000000   0.000000000

     Diagonalizing the dynamical matrix

     q = (    0.000000000   0.000000000   0.000000000 ) 

 **************************************************************************
     freq (    1) =      -0.494562 [THz] =     -16.496825 [cm-1]
     freq (    2) =      -0.494562 [THz] =     -16.496825 [cm-1]
     freq (    3) =      -0.494559 [THz] =     -16.496723 [cm-1]
 **************************************************************************

     Mode symmetry, D_4h(4/mmm) [C_4h (4/m) ] magnetic point group:

     freq (  1 -  1) =        -16.5  [cm-1]   --> A_2u X_4' M_4'  I  
     freq (  2 -  3) =        -16.5  [cm-1]   --> E_u  X_5' M_5'  I  
 
     PHONON       :    12.18s CPU        12.64s WALL

     INITIALIZATION: 
     phq_setup    :      0.11s CPU      0.11s WALL (       1 calls)
     phq_init     :      1.01s CPU      1.04s WALL (       1 calls)
 
     phq_init     :      1.01s CPU      1.04s WALL (       1 calls)
     set_drhoc    :      0.28s CPU      0.28s WALL (       3 calls)
     init_vloc    :      0.00s CPU      0.00s WALL (       1 calls)
     init_us_1    :      0.28s CPU      0.28s WALL (       1 calls)
     newd         :      0.01s CPU      0.01s WALL (       1 calls)
     dvanqq       :      0.09s CPU      0.09s WALL (       1 calls)
     drho         :      0.51s CPU      0.53s WALL (       1 calls)
 
     DYNAMICAL MATRIX:
     dynmat0      :      0.27s CPU      0.28s WALL (       1 calls)
     phqscf       :     10.24s CPU     10.64s WALL (       1 calls)
     dynmatrix    :      0.01s CPU      0.01s WALL (       1 calls)
 
     phqscf       :     10.24s CPU     10.64s WALL (       1 calls)
     solve_linter :     10.19s CPU     10.59s WALL (       2 calls)
     drhodv       :      0.05s CPU      0.05s WALL (       2 calls)
 
     dynmat0      :      0.27s CPU      0.28s WALL (       1 calls)
     dynmat_us    :      0.07s CPU      0.07s WALL (       1 calls)
     d2ionq       :      0.00s CPU      0.00s WALL (       1 calls)
     dynmatcc     :      0.20s CPU      0.20s WALL (       1 calls)
 
     dynmat_us    :      0.07s CPU      0.07s WALL (       1 calls)
     addusdynmat  :      0.00s CPU      0.00s WALL (       1 calls)
 
     phqscf       :     10.24s CPU     10.64s WALL (       1 calls)
     solve_linter :     10.19s CPU     10.59s WALL (       2 calls)
 
     solve_linter :     10.19s CPU     10.59s WALL (       2 calls)
     dvqpsi_us    :      0.23s CPU      0.24s WALL (      60 calls)
     ortho        :      0.09s CPU      0.10s WALL (     420 calls)
     cgsolve      :      6.17s CPU      6.39s WALL (     420 calls)
     incdrhoscf   :      0.73s CPU      0.76s WALL (     420 calls)
     addusddens   :      0.27s CPU      0.28s WALL (      16 calls)
     vpsifft      :      0.52s CPU      0.55s WALL (     360 calls)
     dv_of_drho   :      0.32s CPU      0.32s WALL (      21 calls)
     mix_pot      :      0.06s CPU      0.11s WALL (      14 calls)
     ef_shift     :      0.02s CPU      0.02s WALL (      16 calls)
     localdos     :      0.12s CPU      0.12s WALL (       2 calls)
     psymdvscf    :      0.35s CPU      0.35s WALL (      14 calls)
     newdq        :      0.25s CPU      0.25s WALL (      14 calls)
     adddvscf     :      0.09s CPU      0.09s WALL (     360 calls)
     drhodvus     :      0.00s CPU      0.00s WALL (       2 calls)
 
     dvqpsi_us    :      0.23s CPU      0.24s WALL (      60 calls)
     dvqpsi_us_on :      0.11s CPU      0.11s WALL (      60 calls)
 
     cgsolve      :      6.17s CPU      6.39s WALL (     420 calls)
     ch_psi       :      6.01s CPU      6.26s WALL (    3654 calls)
 
     ch_psi       :      6.01s CPU      6.26s WALL (    3654 calls)
     last         :      0.51s CPU      0.54s WALL (    3654 calls)
 
     add_vuspsi   :      0.17s CPU      0.18s WALL (    3654 calls)
 
     incdrhoscf   :      0.73s CPU      0.76s WALL (     420 calls)
 
     drhodvus     :      0.00s CPU      0.00s WALL (       2 calls)
 
      General routines
     calbec       :      0.39s CPU      0.37s WALL (    8688 calls)
     fft          :      0.21s CPU      0.22s WALL (    1159 calls)
     ffts         :      0.03s CPU      0.04s WALL (    1125 calls)
     fftw         :      4.46s CPU      4.92s WALL (  177252 calls)
     davcio       :      0.05s CPU      0.09s WALL (    1510 calls)
     write_rec    :      0.03s CPU      0.05s WALL (      16 calls)
 
 
     PHONON       :    12.18s CPU        12.64s WALL

 
   This run was terminated on:  11: 6:21  25Aug2016            

=------------------------------------------------------------------------------=
   JOB DONE.
=------------------------------------------------------------------------------=
