
     Program PWSCF v.5.4.0 (svn rev. 12620M) starts on 28Jul2016 at 11:12:30 

     This program is part of the open-source Quantum ESPRESSO suite
     for quantum simulation of materials; please cite
         "P. Giannozzi et al., J. Phys.:Condens. Matter 21 395502 (2009);
          URL http://www.quantum-espresso.org", 
     in publications or presentations arising from this work. More details at
     http://www.quantum-espresso.org/quote
 
           HOST :    x86_64-pc-linux-gnu
           ARCH :    x86_64
             CC :    icc
            CPP :    cpp
            F90 :    ifort
            F77 :    ifort
         DFLAGS :    -D__INTEL -D__FFTW -D__MPI -D__PARA -D__HDF5
      BLAS LIBS :    -lmkl_intel_lp64  -lmkl_sequential -lmkl_core
    LAPACK LIBS :    
       FFT LIBS :    
      MASS LIBS :    

     Parallel version (MPI), running on     2 processors
     R & G space division:  proc/nbgrp/npool/nimage =       2
     Waiting for input...
     Reading input from standard input
     Message from routine read_cards :
     DEPRECATED: no units specified in ATOMIC_POSITIONS card
     Message from routine read_cards :
     ATOMIC_POSITIONS: units set to alat

     Current dimensions of program PWSCF are:
     Max number of different atomic species (ntypx) = 10
     Max number of k-points (npk) =  40000
     Max angular momentum in pseudopotentials (lmaxx) =  3
               file Ni.pbe-nd-rrkjus.UPF: wavefunction(s)  4S renormalized

     Fixed quantization axis for GGA:     0.000000    1.000000    0.000000

     Subspace diagonalization in iterative solution of the eigenvalue problem:
     a serial algorithm will be used


   Info: using nr1, nr2, nr3 values from input
 
     Parallelization info
     --------------------
     sticks:   dense  smooth     PW     G-vecs:    dense   smooth      PW
     Min         225      81     30                 3210      705     165
     Max         226      82     31                 3213      706     166
     Sum         451     163     61                 6423     1411     331
 
     Generating pointlists ...
     new r_m :   0.2917 (alat units)  1.9397 (a.u.) for type    1


     bravais-lattice index     =            2
     lattice parameter (alat)  =       6.6500  a.u.
     unit-cell volume          =      73.5199 (a.u.)^3
     number of atoms/cell      =            1
     number of atomic types    =            1
     number of electrons       =        10.00
     number of Kohn-Sham states=           18
     kinetic-energy cutoff     =      27.0000  Ry
     charge density cutoff     =     300.0000  Ry
     convergence threshold     =      1.0E-12
     mixing beta               =       0.7000
     number of iterations used =            8  plain     mixing
     Exchange-correlation      =  SLA  PW   PBE  PBE ( 1  4  3  4 0 0)
     Noncollinear calculation without spin-orbit


     celldm(1)=   6.650000  celldm(2)=   0.000000  celldm(3)=   0.000000
     celldm(4)=   0.000000  celldm(5)=   0.000000  celldm(6)=   0.000000

     crystal axes: (cart. coord. in units of alat)
               a(1) = (  -0.500000   0.000000   0.500000 )  
               a(2) = (   0.000000   0.500000   0.500000 )  
               a(3) = (  -0.500000   0.500000   0.000000 )  

     reciprocal axes: (cart. coord. in units 2 pi/alat)
               b(1) = ( -1.000000 -1.000000  1.000000 )  
               b(2) = (  1.000000  1.000000  1.000000 )  
               b(3) = ( -1.000000  1.000000 -1.000000 )  


     PseudoPot. # 1 for Ni read from file:
     /home/nvarini/espresso_hdf5/espresso/pseudo/Ni.pbe-nd-rrkjus.UPF
     MD5 check sum: 8081f0a005c9a5470caab1a58e82ecb2
     Pseudo is Ultrasoft + core correction, Zval = 10.0
     Generated by new atomic code, or converted to UPF format
     Using radial grid of 1203 points,  6 beta functions with: 
                l(1) =   0
                l(2) =   0
                l(3) =   1
                l(4) =   1
                l(5) =   2
                l(6) =   2
     Q(r) pseudized with 0 coefficients 


     atomic species   valence    mass     pseudopotential
        Ni            10.00    58.69340     Ni( 1.00)

     16 Sym. Ops., with inversion, found



   Cartesian axes

     site n.     atom                  positions (alat units)
         1           Ni  tau(   1) = (   0.0000000   0.0000000   0.0000000  )

     number of k points=    20  Methfessel-Paxton smearing, width (Ry)=  0.0200
                       cart. coord. in units 2pi/alat
        k(    1) = (  -0.1250000   0.1250000   0.1250000), wk =   0.0312500
        k(    2) = (  -0.3750000   0.3750000  -0.1250000), wk =   0.0625000
        k(    3) = (   0.3750000  -0.3750000   0.6250000), wk =   0.0625000
        k(    4) = (   0.1250000  -0.1250000   0.3750000), wk =   0.0625000
        k(    5) = (  -0.1250000   0.6250000   0.1250000), wk =   0.0312500
        k(    6) = (   0.6250000  -0.1250000   0.8750000), wk =   0.0625000
        k(    7) = (   0.3750000   0.1250000   0.6250000), wk =   0.0625000
        k(    8) = (  -0.1250000  -0.8750000   0.1250000), wk =   0.0312500
        k(    9) = (  -0.3750000   0.3750000   0.3750000), wk =   0.0312500
        k(   10) = (   0.3750000  -0.3750000   1.1250000), wk =   0.0625000
        k(   11) = (   0.3750000  -0.1250000  -0.3750000), wk =   0.0312500
        k(   12) = (  -0.3750000   0.6250000   0.3750000), wk =   0.0312500
        k(   13) = (  -0.1250000   0.3750000   0.1250000), wk =   0.0312500
        k(   14) = (   0.6250000   0.1250000  -0.1250000), wk =   0.0625000
        k(   15) = (  -0.1250000   0.8750000   0.6250000), wk =   0.0625000
        k(   16) = (   0.8750000   0.6250000  -0.1250000), wk =   0.0625000
        k(   17) = (   0.1250000   0.6250000   0.3750000), wk =   0.0625000
        k(   18) = (   0.6250000   0.3750000   0.1250000), wk =   0.0625000
        k(   19) = (  -0.8750000   0.1250000  -0.1250000), wk =   0.0625000
        k(   20) = (  -0.3750000   1.1250000   0.3750000), wk =   0.0312500

     Dense  grid:     6423 G-vectors     FFT dimensions: (  27,  27,  27)

     Smooth grid:     1411 G-vectors     FFT dimensions: (  15,  15,  15)

     Largest allocated arrays     est. size (Mb)     dimensions
        Kohn-Sham Wavefunctions         0.05 Mb     (     188,   18)
        NL pseudopotentials             0.03 Mb     (      94,   18)
        Each V/rho on FFT grid          0.16 Mb     (   10206)
        Each G-vector array             0.02 Mb     (    3213)
        G-vector shells                 0.00 Mb     (     115)
     Largest temporary arrays     est. size (Mb)     dimensions
        Auxiliary wavefunctions         0.21 Mb     (     188,   72)
        Each subspace H/S matrix        0.08 Mb     (      72,   72)
        Each <psi_i|beta_j> matrix      0.01 Mb     (      18,   2,   18)
        Arrays for rho mixing           1.25 Mb     (   10206,    8)

     Check: negative/imaginary core charge=   -0.000020    0.000000

     Initial potential from superposition of free atoms

     starting charge    9.99954, renormalised to   10.00000

 ==============================================================================
     atom number    1 relative position :    0.0000   0.0000   0.0000
     charge :     8.914567
     magnetization :          0.000000    4.457284    0.000000
     magnetization/charge:    0.000000    0.500000    0.000000
     polar coord.: r, theta, phi [deg] :     4.457284   90.000000   90.000000

 ==============================================================================
     Starting wfc are   12 randomized atomic wfcs +    6 random wfc

     total cpu time spent up to now is        0.5 secs

     per-process dynamical memory:     8.8 Mb

     Self-consistent Calculation

     iteration #  1     ecut=    27.00 Ry     beta=0.70
     Davidson diagonalization with overlap
     ethr =  1.00E-02,  avg # of iterations =  4.4

     total cpu time spent up to now is        0.9 secs

     total energy              =     -85.61969764 Ry
     Harris-Foulkes estimate   =     -85.78367752 Ry
     estimated scf accuracy    <       0.59977359 Ry

     total magnetization       =     0.00     1.62     0.00 Bohr mag/cell
     absolute magnetization    =     1.64 Bohr mag/cell

     iteration #  2     ecut=    27.00 Ry     beta=0.70
     Davidson diagonalization with overlap
     ethr =  6.00E-03,  avg # of iterations =  2.0

     total cpu time spent up to now is        1.3 secs

     total energy              =     -85.74808394 Ry
     Harris-Foulkes estimate   =     -86.04373672 Ry
     estimated scf accuracy    <       0.80854309 Ry

     total magnetization       =     0.00     0.69    -0.00 Bohr mag/cell
     absolute magnetization    =     0.75 Bohr mag/cell

     iteration #  3     ecut=    27.00 Ry     beta=0.70
     Davidson diagonalization with overlap
     ethr =  6.00E-03,  avg # of iterations =  1.1

     total cpu time spent up to now is        1.5 secs

     total energy              =     -85.88837409 Ry
     Harris-Foulkes estimate   =     -85.86944666 Ry
     estimated scf accuracy    <       0.02468490 Ry

     total magnetization       =    -0.00     0.86    -0.00 Bohr mag/cell
     absolute magnetization    =     1.01 Bohr mag/cell

     iteration #  4     ecut=    27.00 Ry     beta=0.70
     Davidson diagonalization with overlap
     ethr =  2.47E-04,  avg # of iterations =  1.9

     total cpu time spent up to now is        1.8 secs

     total energy              =     -85.89653230 Ry
     Harris-Foulkes estimate   =     -85.89640716 Ry
     estimated scf accuracy    <       0.00054238 Ry

     total magnetization       =    -0.00     0.69    -0.00 Bohr mag/cell
     absolute magnetization    =     0.82 Bohr mag/cell

     iteration #  5     ecut=    27.00 Ry     beta=0.70
     Davidson diagonalization with overlap
     ethr =  5.42E-06,  avg # of iterations =  2.3

     total cpu time spent up to now is        2.1 secs

     total energy              =     -85.89674704 Ry
     Harris-Foulkes estimate   =     -85.89669589 Ry
     estimated scf accuracy    <       0.00002099 Ry

     total magnetization       =    -0.00     0.69    -0.00 Bohr mag/cell
     absolute magnetization    =     0.80 Bohr mag/cell

     iteration #  6     ecut=    27.00 Ry     beta=0.70
     Davidson diagonalization with overlap
     ethr =  2.10E-07,  avg # of iterations =  2.0

     total cpu time spent up to now is        2.4 secs

     total energy              =     -85.89676733 Ry
     Harris-Foulkes estimate   =     -85.89676394 Ry
     estimated scf accuracy    <       0.00000491 Ry

     total magnetization       =     0.00     0.69     0.00 Bohr mag/cell
     absolute magnetization    =     0.79 Bohr mag/cell

     iteration #  7     ecut=    27.00 Ry     beta=0.70
     Davidson diagonalization with overlap
     ethr =  4.91E-08,  avg # of iterations =  1.9

     total cpu time spent up to now is        2.7 secs

     total energy              =     -85.89676952 Ry
     Harris-Foulkes estimate   =     -85.89676880 Ry
     estimated scf accuracy    <       0.00000109 Ry

     total magnetization       =     0.00     0.69     0.00 Bohr mag/cell
     absolute magnetization    =     0.79 Bohr mag/cell

     iteration #  8     ecut=    27.00 Ry     beta=0.70
     Davidson diagonalization with overlap
     ethr =  1.09E-08,  avg # of iterations =  2.0

     total cpu time spent up to now is        3.0 secs

     total energy              =     -85.89676966 Ry
     Harris-Foulkes estimate   =     -85.89676977 Ry
     estimated scf accuracy    <       0.00000005 Ry

     total magnetization       =     0.00     0.69    -0.00 Bohr mag/cell
     absolute magnetization    =     0.79 Bohr mag/cell

     iteration #  9     ecut=    27.00 Ry     beta=0.70
     Davidson diagonalization with overlap
     ethr =  4.96E-10,  avg # of iterations =  2.0

     total cpu time spent up to now is        3.3 secs

     total energy              =     -85.89676981 Ry
     Harris-Foulkes estimate   =     -85.89676970 Ry
     estimated scf accuracy    <       0.00000022 Ry

     total magnetization       =     0.00     0.69    -0.00 Bohr mag/cell
     absolute magnetization    =     0.79 Bohr mag/cell

     iteration # 10     ecut=    27.00 Ry     beta=0.70
     Davidson diagonalization with overlap
     ethr =  4.96E-10,  avg # of iterations =  2.2

     total cpu time spent up to now is        3.6 secs

     total energy              =     -85.89676983 Ry
     Harris-Foulkes estimate   =     -85.89676983 Ry
     estimated scf accuracy    <          3.4E-09 Ry

     total magnetization       =     0.00     0.69    -0.00 Bohr mag/cell
     absolute magnetization    =     0.79 Bohr mag/cell

     iteration # 11     ecut=    27.00 Ry     beta=0.70
     Davidson diagonalization with overlap
     ethr =  3.42E-11,  avg # of iterations =  1.0

     total cpu time spent up to now is        3.9 secs

     total energy              =     -85.89676983 Ry
     Harris-Foulkes estimate   =     -85.89676983 Ry
     estimated scf accuracy    <          2.2E-11 Ry

     total magnetization       =     0.00     0.69     0.00 Bohr mag/cell
     absolute magnetization    =     0.79 Bohr mag/cell

     iteration # 12     ecut=    27.00 Ry     beta=0.70
     Davidson diagonalization with overlap
     ethr =  2.17E-13,  avg # of iterations =  2.1

     total cpu time spent up to now is        4.2 secs

     total energy              =     -85.89676983 Ry
     Harris-Foulkes estimate   =     -85.89676983 Ry
     estimated scf accuracy    <          1.6E-12 Ry

     total magnetization       =     0.00     0.69    -0.00 Bohr mag/cell
     absolute magnetization    =     0.79 Bohr mag/cell

     iteration # 13     ecut=    27.00 Ry     beta=0.70
     Davidson diagonalization with overlap
     ethr =  1.00E-13,  avg # of iterations =  1.0

 ==============================================================================
     atom number    1 relative position :    0.0000   0.0000   0.0000
     charge :     8.739045
     magnetization :          0.000000    0.732691   -0.000000
     magnetization/charge:    0.000000    0.083841   -0.000000
     polar coord.: r, theta, phi [deg] :     0.732691   90.000000   90.000000

 ==============================================================================

     total cpu time spent up to now is        4.4 secs

     End of self-consistent calculation

          k =-0.1250 0.1250 0.1250 (   172 PWs)   bands (ev):

     5.8245   5.8691  11.5861  11.8445  11.8445  12.4414  12.7266  12.7266
    12.8767  12.8767  13.5943  13.5943  35.2154  35.2396  38.9858  39.1149
    41.0571  41.0571

          k =-0.3750 0.3750-0.1250 (   171 PWs)   bands (ev):

     8.5760   8.6214  11.2604  11.8472  11.9888  12.1422  12.5911  12.7665
    12.9254  13.5913  13.6868  14.4941  27.1066  27.2783  32.6468  32.7147
    39.6089  39.6745

          k = 0.3750-0.3750 0.6250 (   172 PWs)   bands (ev):

     9.6700  10.1807  11.5294  11.9963  12.1361  12.2060  12.7457  12.7903
    13.5684  14.4652  15.4905  15.8884  20.5037  20.9014  33.7471  33.7528
    36.0292  36.0975

          k = 0.1250-0.1250 0.3750 (   169 PWs)   bands (ev):

     7.3337   7.3627  11.1872  11.9947  12.0404  12.1506  12.7075  12.8314
    13.0158  13.1524  13.4830  13.9135  31.2713  31.3758  36.2547  36.3334
    36.7659  36.8252

          k =-0.1250 0.6250 0.1250 (   178 PWs)   bands (ev):

     9.3897   9.5393  10.5910  11.3395  12.0588  12.7030  12.7242  13.4952
    13.5714  13.7975  14.3251  14.5126  28.1586  28.2786  31.5089  31.5783
    32.3303  32.3843

          k = 0.6250-0.1250 0.8750 (   179 PWs)   bands (ev):

    10.3963  10.6511  10.8787  11.3192  11.6342  12.3413  12.9296  13.5295
    13.6405  14.5087  19.0430  19.3202  22.3295  22.5344  26.0132  26.1700
    28.3127  28.4085

          k = 0.3750 0.1250 0.6250 (   174 PWs)   bands (ev):

    10.0199  10.3483  11.0650  11.4389  11.6736  12.1542  12.5045  13.2468
    13.2529  14.1294  15.3183  15.9155  24.0962  24.3089  29.7577  29.8492
    32.8995  32.9695

          k =-0.1250-0.8750 0.1250 (   176 PWs)   bands (ev):

     9.7868  10.1746  10.2063  10.8927  12.8808  13.3187  13.6373  13.6496
    14.1046  14.5799  16.7912  17.0376  24.9832  25.1826  26.3768  26.4723
    30.0889  30.1026

          k =-0.3750 0.3750 0.3750 (   174 PWs)   bands (ev):

     9.0495   9.3301  11.8388  11.8388  12.3406  12.5970  12.5970  12.6754
    13.3545  13.3545  14.2216  14.2216  23.0055  23.2883  36.9017  37.0640
    39.2803  39.2803

          k = 0.3750-0.3750 1.1250 (   176 PWs)   bands (ev):

    10.3742  10.9676  11.0277  11.5077  11.5679  12.2770  12.5161  13.2421
    13.2830  14.2140  17.7603  18.1048  21.2405  21.5392  27.2399  27.3701
    34.3340  34.3960

          k = 0.3750-0.1250-0.3750 (   171 PWs)   bands (ev):

     8.5760   8.6214  11.2604  11.8472  11.9888  12.1422  12.5911  12.7665
    12.9254  13.5913  13.6868  14.4941  27.1066  27.2783  32.6468  32.7147
    39.6089  39.6745

          k =-0.3750 0.6250 0.3750 (   172 PWs)   bands (ev):

     9.6700  10.1807  11.5294  11.9963  12.1361  12.2060  12.7457  12.7903
    13.5684  14.4652  15.4905  15.8884  20.5037  20.9014  33.7471  33.7528
    36.0292  37.2118

          k =-0.1250 0.3750 0.1250 (   169 PWs)   bands (ev):

     7.3337   7.3627  11.1872  11.9947  12.0404  12.1506  12.7075  12.8314
    13.0158  13.1524  13.4830  13.9135  31.2713  31.3758  36.2547  36.3334
    36.7659  36.8252

          k = 0.6250 0.1250-0.1250 (   178 PWs)   bands (ev):

     9.3897   9.5393  10.5910  11.3395  12.0588  12.7030  12.7242  13.4952
    13.5714  13.7975  14.3251  14.5126  28.1586  28.2786  31.5089  31.5783
    32.3303  32.3843

          k =-0.1250 0.8750 0.6250 (   179 PWs)   bands (ev):

    10.3963  10.6511  10.8787  11.3192  11.6342  12.3413  12.9296  13.5295
    13.6405  14.5087  19.0430  19.3202  22.3295  22.5344  26.0132  26.1700
    28.3127  28.4085

          k = 0.8750 0.6250-0.1250 (   179 PWs)   bands (ev):

    10.3963  10.6511  10.8787  11.3192  11.6342  12.3413  12.9296  13.5295
    13.6405  14.5087  19.0430  19.3202  22.3295  22.5344  26.0132  26.1700
    28.3127  28.4085

          k = 0.1250 0.6250 0.3750 (   174 PWs)   bands (ev):

    10.0199  10.3483  11.0650  11.4389  11.6736  12.1542  12.5045  13.2468
    13.2529  14.1294  15.3183  15.9155  24.0962  24.3089  29.7577  29.8492
    32.8995  32.9695

          k = 0.6250 0.3750 0.1250 (   174 PWs)   bands (ev):

    10.0199  10.3483  11.0650  11.4389  11.6736  12.1542  12.5045  13.2468
    13.2529  14.1294  15.3183  15.9155  24.0962  24.3089  29.7577  29.8492
    32.8995  32.9695

          k =-0.8750 0.1250-0.1250 (   176 PWs)   bands (ev):

     9.7868  10.1746  10.2063  10.8927  12.8808  13.3187  13.6373  13.6496
    14.1046  14.5799  16.7912  17.0376  24.9832  25.1826  26.3768  26.4723
    30.0889  30.1026

          k =-0.3750 1.1250 0.3750 (   176 PWs)   bands (ev):

    10.3742  10.9676  11.0277  11.5077  11.5679  12.2770  12.5161  13.2421
    13.2830  14.2140  17.7603  18.1048  21.2405  21.5392  27.2399  27.3701
    34.3340  34.3960

     the Fermi energy is    14.2797 ev

!    total energy              =     -85.89676983 Ry
     Harris-Foulkes estimate   =     -85.89676983 Ry
     estimated scf accuracy    <          1.7E-15 Ry

     The total energy is the sum of the following terms:

     one-electron contribution =      -2.06718637 Ry
     hartree contribution      =      15.23678464 Ry
     xc contribution           =     -30.12083701 Ry
     ewald contribution        =     -68.94529435 Ry
     smearing contrib. (-TS)   =      -0.00023673 Ry

     total magnetization       =     0.00     0.69    -0.00 Bohr mag/cell
     absolute magnetization    =     0.79 Bohr mag/cell

     convergence has been achieved in  13 iterations

     Forces acting on atoms (Ry/au):

     atom    1 type  1   force =     0.00000000    0.00000000    0.00000000

     Total force =     0.000000     Total SCF correction =     0.000000

     Writing output data file nickel.save
 
     init_run     :      0.41s CPU      0.43s WALL (       1 calls)
     electrons    :      3.83s CPU      3.95s WALL (       1 calls)
     forces       :      0.06s CPU      0.06s WALL (       1 calls)

     Called by init_run:
     wfcinit      :      0.06s CPU      0.07s WALL (       1 calls)
     potinit      :      0.02s CPU      0.02s WALL (       1 calls)

     Called by electrons:
     c_bands      :      2.51s CPU      2.61s WALL (      13 calls)
     sum_band     :      0.92s CPU      0.95s WALL (      13 calls)
     v_of_rho     :      0.25s CPU      0.25s WALL (      14 calls)
     newd         :      0.11s CPU      0.12s WALL (      14 calls)
     mix_rho      :      0.03s CPU      0.03s WALL (      13 calls)

     Called by c_bands:
     init_us_2    :      0.02s CPU      0.02s WALL (     560 calls)
     cegterg      :      2.39s CPU      2.49s WALL (     260 calls)

     Called by sum_band:
     sum_band:bec :      0.01s CPU      0.01s WALL (     260 calls)
     addusdens    :      0.42s CPU      0.43s WALL (      13 calls)

     Called by *egterg:
     h_psi        :      1.68s CPU      1.74s WALL (     798 calls)
     s_psi        :      0.04s CPU      0.05s WALL (     798 calls)
     g_psi        :      0.01s CPU      0.01s WALL (     518 calls)
     cdiaghg      :      0.50s CPU      0.51s WALL (     778 calls)

     Called by h_psi:
     add_vuspsi   :      0.05s CPU      0.05s WALL (     798 calls)

     General routines
     calbec       :      0.07s CPU      0.06s WALL (    1138 calls)
     fft          :      0.14s CPU      0.14s WALL (     687 calls)
     ffts         :      0.00s CPU      0.00s WALL (     108 calls)
     fftw         :      1.41s CPU      1.49s WALL (   53136 calls)
     interpolate  :      0.03s CPU      0.03s WALL (     108 calls)
 
     Parallel routines
     fft_scatter  :      0.39s CPU      0.47s WALL (   53931 calls)
 
     PWSCF        :     4.44s CPU         4.60s WALL

 
   This run was terminated on:  11:12:35  28Jul2016            

=------------------------------------------------------------------------------=
   JOB DONE.
=------------------------------------------------------------------------------=
