
     Program PWSCF v.5.4.0 (svn rev. 12650M) starts on  3Aug2016 at 10:39:22 

     This program is part of the open-source Quantum ESPRESSO suite
     for quantum simulation of materials; please cite
         "P. Giannozzi et al., J. Phys.:Condens. Matter 21 395502 (2009);
          URL http://www.quantum-espresso.org", 
     in publications or presentations arising from this work. More details at
     http://www.quantum-espresso.org/quote
 
           HOST :    x86_64-pc-linux-gnu
           ARCH :    x86_64
             CC :    icc
            CPP :    cpp
            F90 :    ifort
            F77 :    ifort
         DFLAGS :    -D__INTEL -D__FFTW -D__MPI -D__PARA -D__HDF5
      BLAS LIBS :    -lmkl_intel_lp64  -lmkl_sequential -lmkl_core
    LAPACK LIBS :    
       FFT LIBS :    
      MASS LIBS :    

     Parallel version (MPI), running on     2 processors
     R & G space division:  proc/nbgrp/npool/nimage =       2
     Waiting for input...
     Reading input from standard input
     Message from routine read_cards :
     DEPRECATED: no units specified in ATOMIC_POSITIONS card
     Message from routine read_cards :
     ATOMIC_POSITIONS: units set to alat

     Current dimensions of program PWSCF are:
     Max number of different atomic species (ntypx) = 10
     Max number of k-points (npk) =  40000
     Max angular momentum in pseudopotentials (lmaxx) =  3

     Fixed quantization axis for GGA:     1.000000    0.000000    0.000000

     Subspace diagonalization in iterative solution of the eigenvalue problem:
     a serial algorithm will be used


   Info: using nr1, nr2, nr3 values from input
 
     Parallelization info
     --------------------
     sticks:   dense  smooth     PW     G-vecs:    dense   smooth      PW
     Min         225      81     30                 3210      705     165
     Max         226      82     31                 3213      706     166
     Sum         451     163     61                 6423     1411     331
 
     Generating pointlists ...
     new r_m :   0.2917 (alat units)  1.9397 (a.u.) for type    1


     bravais-lattice index     =            2
     lattice parameter (alat)  =       6.6500  a.u.
     unit-cell volume          =      73.5199 (a.u.)^3
     number of atoms/cell      =            1
     number of atomic types    =            1
     number of electrons       =        10.00
     number of Kohn-Sham states=           18
     kinetic-energy cutoff     =      27.0000  Ry
     charge density cutoff     =     300.0000  Ry
     convergence threshold     =      1.0E-12
     mixing beta               =       0.7000
     number of iterations used =            8  plain     mixing
     Exchange-correlation      =  SLA  PW   PBX  PBC ( 1  4  3  4 0 0)
     Noncollinear calculation with spin-orbit


     celldm(1)=   6.650000  celldm(2)=   0.000000  celldm(3)=   0.000000
     celldm(4)=   0.000000  celldm(5)=   0.000000  celldm(6)=   0.000000

     crystal axes: (cart. coord. in units of alat)
               a(1) = (  -0.500000   0.000000   0.500000 )  
               a(2) = (   0.000000   0.500000   0.500000 )  
               a(3) = (  -0.500000   0.500000   0.000000 )  

     reciprocal axes: (cart. coord. in units 2 pi/alat)
               b(1) = ( -1.000000 -1.000000  1.000000 )  
               b(2) = (  1.000000  1.000000  1.000000 )  
               b(3) = ( -1.000000  1.000000 -1.000000 )  


     PseudoPot. # 1 for Ni read from file:
     /home/nvarini/espresso_hdf5/espresso/pseudo/Ni.rel-pbe-nd-rrkjus.UPF
     MD5 check sum: 7e778555a9140027a2981034861e5d4c
     Pseudo is Ultrasoft + core correction, Zval = 10.0
     Generated by new atomic code, or converted to UPF format
     Using radial grid of 1195 points, 10 beta functions with: 
                l(1) =   0
                l(2) =   0
                l(3) =   1
                l(4) =   1
                l(5) =   1
                l(6) =   1
                l(7) =   2
                l(8) =   2
                l(9) =   2
               l(10) =   2
     Q(r) pseudized with 0 coefficients 


     atomic species   valence    mass     pseudopotential
        Ni            10.00    58.69340     Ni( 1.00)

     16 Sym. Ops., with inversion, found



   Cartesian axes

     site n.     atom                  positions (alat units)
         1           Ni  tau(   1) = (   0.0000000   0.0000000   0.0000000  )

     number of k points=    20  Methfessel-Paxton smearing, width (Ry)=  0.0200
                       cart. coord. in units 2pi/alat
        k(    1) = (  -0.1250000   0.1250000   0.1250000), wk =   0.0312500
        k(    2) = (  -0.3750000   0.3750000  -0.1250000), wk =   0.0625000
        k(    3) = (   0.3750000  -0.3750000   0.6250000), wk =   0.0625000
        k(    4) = (   0.1250000  -0.1250000   0.3750000), wk =   0.0625000
        k(    5) = (  -0.1250000   0.6250000   0.1250000), wk =   0.0625000
        k(    6) = (   0.6250000  -0.1250000   0.8750000), wk =   0.0625000
        k(    7) = (   0.3750000   0.1250000   0.6250000), wk =   0.0625000
        k(    8) = (  -0.1250000  -0.8750000   0.1250000), wk =   0.0625000
        k(    9) = (  -0.3750000   0.3750000   0.3750000), wk =   0.0312500
        k(   10) = (   0.3750000  -0.3750000   1.1250000), wk =   0.0625000
        k(   11) = (  -0.1250000  -0.3750000   0.3750000), wk =   0.0312500
        k(   12) = (   0.6250000   0.3750000  -0.3750000), wk =   0.0312500
        k(   13) = (   0.3750000   0.1250000  -0.1250000), wk =   0.0312500
        k(   14) = (   0.6250000   0.1250000  -0.1250000), wk =   0.0312500
        k(   15) = (  -0.1250000   0.8750000   0.6250000), wk =   0.0625000
        k(   16) = (   0.8750000   0.6250000  -0.1250000), wk =   0.0625000
        k(   17) = (   0.1250000   0.6250000   0.3750000), wk =   0.0625000
        k(   18) = (   0.6250000   0.3750000   0.1250000), wk =   0.0625000
        k(   19) = (  -0.8750000   0.1250000  -0.1250000), wk =   0.0312500
        k(   20) = (   1.1250000   0.3750000  -0.3750000), wk =   0.0312500

     Dense  grid:     6423 G-vectors     FFT dimensions: (  27,  27,  27)

     Smooth grid:     1411 G-vectors     FFT dimensions: (  15,  15,  15)

     Largest allocated arrays     est. size (Mb)     dimensions
        Kohn-Sham Wavefunctions         0.05 Mb     (     190,   18)
        NL pseudopotentials             0.05 Mb     (      95,   34)
        Each V/rho on FFT grid          0.16 Mb     (   10206)
        Each G-vector array             0.02 Mb     (    3213)
        G-vector shells                 0.00 Mb     (     115)
     Largest temporary arrays     est. size (Mb)     dimensions
        Auxiliary wavefunctions         0.21 Mb     (     190,   72)
        Each subspace H/S matrix        0.08 Mb     (      72,   72)
        Each <psi_i|beta_j> matrix      0.02 Mb     (      34,   2,   18)
        Arrays for rho mixing           1.25 Mb     (   10206,    8)

     Check: negative/imaginary core charge=   -0.000003    0.000000

     Initial potential from superposition of free atoms

     starting charge    9.99954, renormalised to   10.00000

 ==============================================================================
     atom number    1 relative position :    0.0000   0.0000   0.0000
     charge :     8.914207
     magnetization :          4.457103    0.000000    0.000000
     magnetization/charge:    0.500000    0.000000    0.000000
     polar coord.: r, theta, phi [deg] :     4.457103   90.000000    0.000000

 ==============================================================================
     Starting wfc are   12 randomized atomic wfcs +    6 random wfc

     total cpu time spent up to now is        0.8 secs

     per-process dynamical memory:    14.0 Mb

     Self-consistent Calculation

     iteration #  1     ecut=    27.00 Ry     beta=0.70
     Davidson diagonalization with overlap
     ethr =  1.00E-02,  avg # of iterations =  4.3

     total cpu time spent up to now is        1.5 secs

     total energy              =     -90.41698983 Ry
     Harris-Foulkes estimate   =     -90.58664459 Ry
     estimated scf accuracy    <       0.60337239 Ry

     total magnetization       =     1.62    -0.00     0.00 Bohr mag/cell
     absolute magnetization    =     1.63 Bohr mag/cell

     iteration #  2     ecut=    27.00 Ry     beta=0.70
     Davidson diagonalization with overlap
     ethr =  6.03E-03,  avg # of iterations =  2.0

     total cpu time spent up to now is        2.1 secs

     total energy              =     -90.54628260 Ry
     Harris-Foulkes estimate   =     -90.84925483 Ry
     estimated scf accuracy    <       0.82502622 Ry

     total magnetization       =     0.69     0.00    -0.00 Bohr mag/cell
     absolute magnetization    =     0.74 Bohr mag/cell

     iteration #  3     ecut=    27.00 Ry     beta=0.70
     Davidson diagonalization with overlap
     ethr =  6.03E-03,  avg # of iterations =  1.1

     total cpu time spent up to now is        2.6 secs

     total energy              =     -90.68987871 Ry
     Harris-Foulkes estimate   =     -90.67048568 Ry
     estimated scf accuracy    <       0.02631886 Ry

     total magnetization       =     0.83     0.00     0.00 Bohr mag/cell
     absolute magnetization    =     0.98 Bohr mag/cell

     iteration #  4     ecut=    27.00 Ry     beta=0.70
     Davidson diagonalization with overlap
     ethr =  2.63E-04,  avg # of iterations =  1.8

     total cpu time spent up to now is        3.1 secs

     total energy              =     -90.69738241 Ry
     Harris-Foulkes estimate   =     -90.69722474 Ry
     estimated scf accuracy    <       0.00103619 Ry

     total magnetization       =     0.69    -0.00     0.00 Bohr mag/cell
     absolute magnetization    =     0.81 Bohr mag/cell

     iteration #  5     ecut=    27.00 Ry     beta=0.70
     Davidson diagonalization with overlap
     ethr =  1.04E-05,  avg # of iterations =  2.8

     total cpu time spent up to now is        3.6 secs

     total energy              =     -90.69765901 Ry
     Harris-Foulkes estimate   =     -90.69766446 Ry
     estimated scf accuracy    <       0.00009821 Ry

     total magnetization       =     0.69     0.00    -0.00 Bohr mag/cell
     absolute magnetization    =     0.79 Bohr mag/cell

     iteration #  6     ecut=    27.00 Ry     beta=0.70
     Davidson diagonalization with overlap
     ethr =  9.82E-07,  avg # of iterations =  2.0

     total cpu time spent up to now is        4.2 secs

     total energy              =     -90.69769884 Ry
     Harris-Foulkes estimate   =     -90.69769579 Ry
     estimated scf accuracy    <       0.00001396 Ry

     total magnetization       =     0.69     0.00    -0.00 Bohr mag/cell
     absolute magnetization    =     0.78 Bohr mag/cell

     iteration #  7     ecut=    27.00 Ry     beta=0.70
     Davidson diagonalization with overlap
     ethr =  1.40E-07,  avg # of iterations =  1.2

     total cpu time spent up to now is        4.7 secs

     total energy              =     -90.69770052 Ry
     Harris-Foulkes estimate   =     -90.69769967 Ry
     estimated scf accuracy    <       0.00000229 Ry

     total magnetization       =     0.69     0.00    -0.00 Bohr mag/cell
     absolute magnetization    =     0.78 Bohr mag/cell

     iteration #  8     ecut=    27.00 Ry     beta=0.70
     Davidson diagonalization with overlap
     ethr =  2.29E-08,  avg # of iterations =  1.9

     total cpu time spent up to now is        5.2 secs

     total energy              =     -90.69770108 Ry
     Harris-Foulkes estimate   =     -90.69770103 Ry
     estimated scf accuracy    <       0.00000003 Ry

     total magnetization       =     0.69     0.00    -0.00 Bohr mag/cell
     absolute magnetization    =     0.78 Bohr mag/cell

     iteration #  9     ecut=    27.00 Ry     beta=0.70
     Davidson diagonalization with overlap
     ethr =  3.41E-10,  avg # of iterations =  2.3

     total cpu time spent up to now is        5.8 secs

     total energy              =     -90.69770109 Ry
     Harris-Foulkes estimate   =     -90.69770108 Ry
     estimated scf accuracy    <          1.2E-09 Ry

     total magnetization       =     0.69    -0.00    -0.00 Bohr mag/cell
     absolute magnetization    =     0.78 Bohr mag/cell

     iteration # 10     ecut=    27.00 Ry     beta=0.70
     Davidson diagonalization with overlap
     ethr =  1.19E-11,  avg # of iterations =  1.6

     total cpu time spent up to now is        6.3 secs

     total energy              =     -90.69770109 Ry
     Harris-Foulkes estimate   =     -90.69770109 Ry
     estimated scf accuracy    <          4.5E-11 Ry

     total magnetization       =     0.69     0.00    -0.00 Bohr mag/cell
     absolute magnetization    =     0.78 Bohr mag/cell

     iteration # 11     ecut=    27.00 Ry     beta=0.70
     Davidson diagonalization with overlap
     ethr =  4.52E-13,  avg # of iterations =  2.0

     total cpu time spent up to now is        6.8 secs

     total energy              =     -90.69770109 Ry
     Harris-Foulkes estimate   =     -90.69770109 Ry
     estimated scf accuracy    <          2.6E-11 Ry

     total magnetization       =     0.69    -0.00    -0.00 Bohr mag/cell
     absolute magnetization    =     0.78 Bohr mag/cell

     iteration # 12     ecut=    27.00 Ry     beta=0.70
     Davidson diagonalization with overlap
     ethr =  2.63E-13,  avg # of iterations =  1.0

 ==============================================================================
     atom number    1 relative position :    0.0000   0.0000   0.0000
     charge :     8.738099
     magnetization :          0.729238   -0.000000   -0.000000
     magnetization/charge:    0.083455   -0.000000   -0.000000
     polar coord.: r, theta, phi [deg] :     0.729238   90.000000    0.000000

 ==============================================================================

     total cpu time spent up to now is        7.3 secs

     End of self-consistent calculation

          k =-0.1250 0.1250 0.1250 (   172 PWs)   bands (ev):

     5.8328   5.8724  11.5982  11.8247  11.8946  12.4178  12.6611  12.7476
    12.9093  12.9418  13.5967  13.6201  35.2130  35.2383  38.9931  39.1148
    41.0027  41.0258

          k =-0.3750 0.3750-0.1250 (   171 PWs)   bands (ev):

     8.5809   8.6285  11.2753  11.8473  11.9784  12.1582  12.5835  12.8003
    12.9379  13.5831  13.7286  14.4998  27.1130  27.2805  32.6483  32.7161
    39.6132  39.6730

          k = 0.3750-0.3750 0.6250 (   172 PWs)   bands (ev):

     9.6832  10.1796  11.5340  11.9966  12.1411  12.2292  12.7435  12.8074
    13.5962  14.4650  15.5041  15.8937  20.5189  20.9041  33.7434  33.7521
    36.0308  36.1018

          k = 0.1250-0.1250 0.3750 (   169 PWs)   bands (ev):

     7.3417   7.3661  11.2034  11.9713  12.0393  12.1828  12.7045  12.8450
    13.0270  13.1834  13.4940  13.9257  31.2732  31.3757  36.2543  36.3337
    36.7634  36.8194

          k =-0.1250 0.6250 0.1250 (   178 PWs)   bands (ev):

     9.3947   9.5455  10.6077  11.3312  12.0688  12.6598  12.7891  13.5005
    13.5841  13.8257  14.3261  14.5245  28.1622  28.2804  31.5036  31.5742
    32.3428  32.3988

          k = 0.6250-0.1250 0.8750 (   179 PWs)   bands (ev):

    10.4040  10.6646  10.8806  11.3126  11.6547  12.3334  12.9546  13.5578
    13.6511  14.5059  19.0540  19.3256  22.3389  22.5396  26.0186  26.1746
    28.3200  28.4167

          k = 0.3750 0.1250 0.6250 (   174 PWs)   bands (ev):

    10.0295  10.3511  11.0776  11.4487  11.6722  12.1388  12.5390  13.2327
    13.2995  14.1289  15.3389  15.9199  24.1050  24.3125  29.7606  29.8520
    32.9029  32.9749

          k =-0.1250-0.8750 0.1250 (   176 PWs)   bands (ev):

     9.7935  10.1909  10.2096  10.8864  12.8998  13.3326  13.6226  13.6924
    14.1141  14.5808  16.8014  17.0438  24.9877  25.1855  26.3842  26.4798
    30.0967  30.1150

          k =-0.3750 0.3750 0.3750 (   174 PWs)   bands (ev):

     9.0592   9.3337  11.7982  11.8983  12.3469  12.5511  12.6466  12.6734
    13.3572  13.4110  14.2020  14.2515  23.0167  23.2911  36.9066  37.0615
    39.1981  39.2496

          k = 0.3750-0.3750 1.1250 (   176 PWs)   bands (ev):

    10.3885  10.9613  11.0349  11.4997  11.5970  12.2625  12.5476  13.2341
    13.3269  14.2139  17.7732  18.1100  21.2526  21.5431  27.2449  27.3745
    34.3378  34.4031

          k =-0.1250-0.3750 0.3750 (   171 PWs)   bands (ev):

     8.5810   8.6285  11.2755  11.8482  11.9782  12.1579  12.5816  12.7941
    12.9456  13.5898  13.7211  14.5003  27.1131  27.2805  32.6483  32.7161
    39.6134  39.6729

          k = 0.6250 0.3750-0.3750 (   172 PWs)   bands (ev):

     9.6832  10.1796  11.5370  11.9745  12.1584  12.2405  12.7080  12.8335
    13.5959  14.4649  15.5047  15.8934  20.5189  20.9041  33.7435  33.7521
    36.0307  36.1020

          k = 0.3750 0.1250-0.1250 (   169 PWs)   bands (ev):

     7.3418   7.3661  11.2026  11.9742  12.0391  12.1833  12.6878  12.8720
    13.0153  13.1782  13.4993  13.9246  31.2731  31.3758  36.2542  36.3338
    36.7633  36.8195

          k = 0.6250 0.1250-0.1250 (   178 PWs)   bands (ev):

     9.3948   9.5455  10.6070  11.3319  12.0705  12.6489  12.7995  13.4882
    13.6000  13.8172  14.3339  14.5202  28.1622  28.2805  31.5041  31.5739
    32.3429  32.3987

          k =-0.1250 0.8750 0.6250 (   179 PWs)   bands (ev):

    10.4046  10.6649  10.8796  11.3121  11.6557  12.3340  12.9529  13.5517
    13.6577  14.5059  19.0545  19.3253  22.3389  22.5396  26.0189  26.1745
    28.3200  28.4167

          k = 0.8750 0.6250-0.1250 (   179 PWs)   bands (ev):

    10.4043  10.6646  10.8812  11.3112  11.6547  12.3358  12.9521  13.5539
    13.6557  14.5059  19.0541  19.3254  22.3391  22.5395  26.0186  26.1745
    28.3200  28.4167

          k = 0.1250 0.6250 0.3750 (   174 PWs)   bands (ev):

    10.0295  10.3511  11.0773  11.4510  11.6705  12.1391  12.5372  13.2391
    13.2942  14.1288  15.3390  15.9197  24.1051  24.3125  29.7607  29.8520
    32.9029  32.9749

          k = 0.6250 0.3750 0.1250 (   174 PWs)   bands (ev):

    10.0296  10.3509  11.0771  11.4510  11.6710  12.1396  12.5363  13.2475
    13.2857  14.1290  15.3396  15.9196  24.1050  24.3125  29.7606  29.8520
    32.9030  32.9749

          k =-0.8750 0.1250-0.1250 (   176 PWs)   bands (ev):

     9.7942  10.1901  10.2094  10.8869  12.8992  13.3333  13.6451  13.6652
    14.1192  14.5798  16.8018  17.0437  24.9882  25.1854  26.3841  26.4798
    30.0966  30.1151

          k = 1.1250 0.3750-0.3750 (   176 PWs)   bands (ev):

    10.3881  10.9599  11.0391  11.4903  11.6038  12.2658  12.5442  13.2250
    13.3363  14.2136  17.7732  18.1100  21.2528  21.5431  27.2450  27.3745
    34.3377  34.4032

     the Fermi energy is    14.2816 ev

!    total energy              =     -90.69770109 Ry
     Harris-Foulkes estimate   =     -90.69770109 Ry
     estimated scf accuracy    <          1.1E-13 Ry

     The total energy is the sum of the following terms:

     one-electron contribution =      -1.63692451 Ry
     hartree contribution      =      15.23265348 Ry
     xc contribution           =     -35.34793445 Ry
     ewald contribution        =     -68.94529435 Ry
     smearing contrib. (-TS)   =      -0.00020127 Ry

     total magnetization       =     0.69    -0.00    -0.00 Bohr mag/cell
     absolute magnetization    =     0.78 Bohr mag/cell

     convergence has been achieved in  12 iterations

     Forces acting on atoms (Ry/au):

     atom    1 type  1   force =     0.00000000    0.00000000    0.00000000

     Total force =     0.000000     Total SCF correction =     0.000000

     Writing output data file ni_so.save
 
     init_run     :      0.65s CPU      0.67s WALL (       1 calls)
     electrons    :      6.39s CPU      6.55s WALL (       1 calls)
     forces       :      0.14s CPU      0.14s WALL (       1 calls)

     Called by init_run:
     wfcinit      :      0.07s CPU      0.08s WALL (       1 calls)
     potinit      :      0.02s CPU      0.02s WALL (       1 calls)

     Called by electrons:
     c_bands      :      2.75s CPU      2.86s WALL (      12 calls)
     sum_band     :      2.45s CPU      2.49s WALL (      12 calls)
     v_of_rho     :      0.23s CPU      0.23s WALL (      13 calls)
     newd         :      1.01s CPU      1.02s WALL (      13 calls)
     mix_rho      :      0.02s CPU      0.03s WALL (      12 calls)

     Called by c_bands:
     init_us_2    :      0.03s CPU      0.03s WALL (     520 calls)
     cegterg      :      2.40s CPU      2.50s WALL (     240 calls)

     Called by sum_band:
     sum_band:bec :      0.53s CPU      0.53s WALL (     240 calls)
     addusdens    :      1.43s CPU      1.46s WALL (      12 calls)

     Called by *egterg:
     h_psi        :      1.67s CPU      1.73s WALL (     739 calls)
     s_psi        :      0.12s CPU      0.11s WALL (     739 calls)
     g_psi        :      0.01s CPU      0.01s WALL (     479 calls)
     cdiaghg      :      0.48s CPU      0.49s WALL (     719 calls)

     Called by h_psi:
     add_vuspsi   :      0.11s CPU      0.12s WALL (     739 calls)

     General routines
     calbec       :      0.10s CPU      0.09s WALL (    1059 calls)
     fft          :      0.12s CPU      0.12s WALL (     638 calls)
     ffts         :      0.00s CPU      0.00s WALL (     100 calls)
     fftw         :      1.28s CPU      1.41s WALL (   48888 calls)
     interpolate  :      0.02s CPU      0.03s WALL (     100 calls)
 
     Parallel routines
     fft_scatter  :      0.35s CPU      0.45s WALL (   49626 calls)
 
     PWSCF        :     7.38s CPU         7.58s WALL

 
   This run was terminated on:  10:39:30   3Aug2016            

=------------------------------------------------------------------------------=
   JOB DONE.
=------------------------------------------------------------------------------=
