
     Program PHONON v.5.4.0 (svn rev. 12650M) starts on  3Aug2016 at 10:39:49 

     This program is part of the open-source Quantum ESPRESSO suite
     for quantum simulation of materials; please cite
         "P. Giannozzi et al., J. Phys.:Condens. Matter 21 395502 (2009);
          URL http://www.quantum-espresso.org", 
     in publications or presentations arising from this work. More details at
     http://www.quantum-espresso.org/quote
 
           HOST :    x86_64-pc-linux-gnu
           ARCH :    x86_64
             CC :    icc
            CPP :    cpp
            F90 :    ifort
            F77 :    ifort
         DFLAGS :    -D__INTEL -D__FFTW -D__MPI -D__PARA -D__HDF5
      BLAS LIBS :    -lmkl_intel_lp64  -lmkl_sequential -lmkl_core
    LAPACK LIBS :    
       FFT LIBS :    
      MASS LIBS :    

     Parallel version (MPI), running on     2 processors
     R & G space division:  proc/nbgrp/npool/nimage =       2

     Reading data from directory:
     /home/nvarini/espresso_hdf5/espresso/tempdir/ni_so.save

   Info: using nr1, nr2, nr3 values from input

   Info: using nr1, nr2, nr3 values from input

     IMPORTANT: XC functional enforced from input :
     Exchange-correlation      =  SLA  PW   PBX  PBC ( 1  4  3  4 0 0)
     Any further DFT definition will be discarded
     Please, verify this is what you really want

 
     Parallelization info
     --------------------
     sticks:   dense  smooth     PW     G-vecs:    dense   smooth      PW
     Min         225      81     30                 3210      705     165
     Max         226      82     31                 3213      706     166
     Sum         451     163     61                 6423     1411     331
 

     Check: negative/imaginary core charge=   -0.000003    0.000000

     Calculation of q =    0.0000000   0.0000000   1.0000000
 
     Parallelization info
     --------------------
     sticks:   dense  smooth     PW     G-vecs:    dense   smooth      PW
     Min         225      81     42                 3210      704     264
     Max         226      82     43                 3213      707     267
     Sum         451     163     85                 6423     1411     531
 


     bravais-lattice index     =            2
     lattice parameter (alat)  =       6.6500  a.u.
     unit-cell volume          =      73.5199 (a.u.)^3
     number of atoms/cell      =            1
     number of atomic types    =            1
     number of electrons       =        10.00
     number of Kohn-Sham states=           18
     kinetic-energy cutoff     =      27.0000  Ry
     charge density cutoff     =     300.0000  Ry
     Exchange-correlation      =  SLA  PW   PBX  PBC ( 1  4  3  4 0 0)
     Noncollinear calculation with spin-orbit


     celldm(1)=   6.650000  celldm(2)=   0.000000  celldm(3)=   0.000000
     celldm(4)=   0.000000  celldm(5)=   0.000000  celldm(6)=   0.000000

     crystal axes: (cart. coord. in units of alat)
               a(1) = (  -0.500000   0.000000   0.500000 )  
               a(2) = (   0.000000   0.500000   0.500000 )  
               a(3) = (  -0.500000   0.500000   0.000000 )  

     reciprocal axes: (cart. coord. in units 2 pi/alat)
               b(1) = ( -1.000000 -1.000000  1.000000 )  
               b(2) = (  1.000000  1.000000  1.000000 )  
               b(3) = ( -1.000000  1.000000 -1.000000 )  


     PseudoPot. # 1 for Ni read from file:
     /home/nvarini/espresso_hdf5/espresso/pseudo/Ni.rel-pbe-nd-rrkjus.UPF
     MD5 check sum: 7e778555a9140027a2981034861e5d4c
     Pseudo is Ultrasoft + core correction, Zval = 10.0
     Generated by new atomic code, or converted to UPF format
     Using radial grid of 1195 points, 10 beta functions with: 
                l(1) =   0
                l(2) =   0
                l(3) =   1
                l(4) =   1
                l(5) =   1
                l(6) =   1
                l(7) =   2
                l(8) =   2
                l(9) =   2
               l(10) =   2
     Q(r) pseudized with 0 coefficients 


     atomic species   valence    mass     pseudopotential
        Ni            10.00    58.69340     Ni( 1.00)

     16 Sym. Ops., with inversion, found



   Cartesian axes

     site n.     atom                  positions (alat units)
         1           Ni  tau(   1) = (   0.0000000   0.0000000   0.0000000  )

     number of k points=    64  Methfessel-Paxton smearing, width (Ry)=  0.0200
                       cart. coord. in units 2pi/alat
        k(    1) = (  -0.1250000   0.1250000   0.1250000), wk =   0.0312500
        k(    2) = (  -0.1250000   0.1250000   1.1250000), wk =   0.0000000
        k(    3) = (  -0.3750000   0.3750000  -0.1250000), wk =   0.0312500
        k(    4) = (  -0.3750000   0.3750000   0.8750000), wk =   0.0000000
        k(    5) = (   0.3750000  -0.3750000   0.6250000), wk =   0.0312500
        k(    6) = (   0.3750000  -0.3750000   1.6250000), wk =   0.0000000
        k(    7) = (   0.1250000  -0.1250000   0.3750000), wk =   0.0312500
        k(    8) = (   0.1250000  -0.1250000   1.3750000), wk =   0.0000000
        k(    9) = (  -0.1250000   0.6250000   0.1250000), wk =   0.0312500
        k(   10) = (  -0.1250000   0.6250000   1.1250000), wk =   0.0000000
        k(   11) = (   0.6250000  -0.1250000   0.8750000), wk =   0.0312500
        k(   12) = (   0.6250000  -0.1250000   1.8750000), wk =   0.0000000
        k(   13) = (   0.3750000   0.1250000   0.6250000), wk =   0.0312500
        k(   14) = (   0.3750000   0.1250000   1.6250000), wk =   0.0000000
        k(   15) = (  -0.1250000  -0.8750000   0.1250000), wk =   0.0312500
        k(   16) = (  -0.1250000  -0.8750000   1.1250000), wk =   0.0000000
        k(   17) = (  -0.3750000   0.3750000   0.3750000), wk =   0.0312500
        k(   18) = (  -0.3750000   0.3750000   1.3750000), wk =   0.0000000
        k(   19) = (   0.3750000  -0.3750000   1.1250000), wk =   0.0312500
        k(   20) = (   0.3750000  -0.3750000   2.1250000), wk =   0.0000000
        k(   21) = (   0.3750000  -0.1250000   0.3750000), wk =   0.0312500
        k(   22) = (   0.3750000  -0.1250000   1.3750000), wk =   0.0000000
        k(   23) = (  -0.1250000  -0.3750000   0.3750000), wk =   0.0312500
        k(   24) = (  -0.1250000  -0.3750000   1.3750000), wk =   0.0000000
        k(   25) = (  -0.3750000   0.6250000  -0.3750000), wk =   0.0312500
        k(   26) = (  -0.3750000   0.6250000   0.6250000), wk =   0.0000000
        k(   27) = (   0.6250000   0.3750000  -0.3750000), wk =   0.0312500
        k(   28) = (   0.6250000   0.3750000   0.6250000), wk =   0.0000000
        k(   29) = (  -0.1250000   0.3750000  -0.1250000), wk =   0.0312500
        k(   30) = (  -0.1250000   0.3750000   0.8750000), wk =   0.0000000
        k(   31) = (   0.3750000   0.1250000  -0.1250000), wk =   0.0312500
        k(   32) = (   0.3750000   0.1250000   0.8750000), wk =   0.0000000
        k(   33) = (   0.1250000   0.1250000   0.6250000), wk =   0.0312500
        k(   34) = (   0.1250000   0.1250000   1.6250000), wk =   0.0000000
        k(   35) = (   0.6250000   0.1250000  -0.1250000), wk =   0.0312500
        k(   36) = (   0.6250000   0.1250000   0.8750000), wk =   0.0000000
        k(   37) = (  -0.6250000   0.8750000  -0.1250000), wk =   0.0312500
        k(   38) = (  -0.6250000   0.8750000   0.8750000), wk =   0.0000000
        k(   39) = (  -0.1250000   0.8750000   0.6250000), wk =   0.0312500
        k(   40) = (  -0.1250000   0.8750000   1.6250000), wk =   0.0000000
        k(   41) = (   0.8750000   0.6250000  -0.1250000), wk =   0.0312500
        k(   42) = (   0.8750000   0.6250000   0.8750000), wk =   0.0000000
        k(   43) = (   0.8750000   0.1250000   0.6250000), wk =   0.0312500
        k(   44) = (   0.8750000   0.1250000   1.6250000), wk =   0.0000000
        k(   45) = (   0.1250000  -0.6250000   0.8750000), wk =   0.0312500
        k(   46) = (   0.1250000  -0.6250000   1.8750000), wk =   0.0000000
        k(   47) = (  -0.3750000   0.6250000   0.1250000), wk =   0.0312500
        k(   48) = (  -0.3750000   0.6250000   1.1250000), wk =   0.0000000
        k(   49) = (   0.1250000   0.6250000   0.3750000), wk =   0.0312500
        k(   50) = (   0.1250000   0.6250000   1.3750000), wk =   0.0000000
        k(   51) = (   0.6250000   0.3750000   0.1250000), wk =   0.0312500
        k(   52) = (   0.6250000   0.3750000   1.1250000), wk =   0.0000000
        k(   53) = (   0.6250000  -0.1250000   0.3750000), wk =   0.0312500
        k(   54) = (   0.6250000  -0.1250000   1.3750000), wk =   0.0000000
        k(   55) = (  -0.1250000  -0.3750000   0.6250000), wk =   0.0312500
        k(   56) = (  -0.1250000  -0.3750000   1.6250000), wk =   0.0000000
        k(   57) = (   0.1250000   0.1250000  -0.8750000), wk =   0.0312500
        k(   58) = (   0.1250000   0.1250000   0.1250000), wk =   0.0000000
        k(   59) = (  -0.8750000   0.1250000  -0.1250000), wk =   0.0312500
        k(   60) = (  -0.8750000   0.1250000   0.8750000), wk =   0.0000000
        k(   61) = (  -0.3750000   1.1250000  -0.3750000), wk =   0.0312500
        k(   62) = (  -0.3750000   1.1250000   0.6250000), wk =   0.0000000
        k(   63) = (   1.1250000   0.3750000  -0.3750000), wk =   0.0312500
        k(   64) = (   1.1250000   0.3750000   0.6250000), wk =   0.0000000

     Dense  grid:     6423 G-vectors     FFT dimensions: (  27,  27,  27)

     Smooth grid:     1411 G-vectors     FFT dimensions: (  15,  15,  15)

     Largest allocated arrays     est. size (Mb)     dimensions
        Kohn-Sham Wavefunctions         0.05 Mb     (     192,   18)
        NL pseudopotentials             0.05 Mb     (      96,   34)
        Each V/rho on FFT grid          0.16 Mb     (   10206)
        Each G-vector array             0.02 Mb     (    3213)
        G-vector shells                 0.00 Mb     (     115)
     Largest temporary arrays     est. size (Mb)     dimensions
        Auxiliary wavefunctions         0.21 Mb     (     192,   72)
        Each subspace H/S matrix        0.08 Mb     (      72,   72)
        Each <psi_i|beta_j> matrix      0.02 Mb     (      34,   2,   18)

     Check: negative/imaginary core charge=   -0.000003    0.000000

     The potential is recalculated from file :
     /home/nvarini/espresso_hdf5/espresso/tempdir/_ph0/ni_so.save/charge-density.hdf5

     Starting wfc are   12 atomic +    6 random wfc

     Band Structure Calculation
     Davidson diagonalization with overlap

     ethr =  1.00E-10,  avg # of iterations = 14.2

     total cpu time spent up to now is        4.7 secs

     End of band structure calculation

          k =-0.1250 0.1250 0.1250 (   172 PWs)   bands (ev):

     5.8330   5.8724  11.5990  11.8256  11.8954  12.4173  12.6608  12.7472
    12.9099  12.9420  13.5954  13.6187  35.2104  35.2414  38.9977  39.1104
    41.0028  41.0226

          k =-0.1250 0.1250 1.1250 (   176 PWs)   bands (ev):

     9.7953  10.1909  10.2078  10.8865  12.9002  13.3336  13.6229  13.6927
    14.1129  14.5799  16.8008  17.0445  24.9882  25.1852  26.3854  26.4787
    30.0990  30.1129

          k =-0.3750 0.3750-0.1250 (   171 PWs)   bands (ev):

     8.5809   8.6288  11.2757  11.8486  11.9779  12.1594  12.5825  12.8012
    12.9366  13.5820  13.7295  14.4988  27.1130  27.2806  32.6483  32.7164
    39.6153  39.6711

          k =-0.3750 0.3750 0.8750 (   176 PWs)   bands (ev):

    10.3884  10.9617  11.0364  11.4977  11.5974  12.2625  12.5487  13.2329
    13.3275  14.2129  17.7736  18.1097  21.2527  21.5431  27.2455  27.3740
    34.3397  34.4014

          k = 0.3750-0.3750 0.6250 (   172 PWs)   bands (ev):

     9.6832  10.1798  11.5355  11.9974  12.1400  12.2295  12.7425  12.8069
    13.5971  14.4640  15.5044  15.8933  20.5196  20.9034  33.7423  33.7535
    36.0329  36.0999

          k = 0.3750-0.3750 1.6250 (   174 PWs)   bands (ev):

     9.0591   9.3339  11.7995  11.8996  12.3471  12.5497  12.6453  12.6732
    13.3581  13.4121  14.2009  14.2503  23.0172  23.2907  36.9111  37.0573
    39.1992  39.2481

          k = 0.1250-0.1250 0.3750 (   169 PWs)   bands (ev):

     7.3420   7.3661  11.2039  11.9712  12.0402  12.1837  12.7054  12.8442
    13.0258  13.1843  13.4928  13.9244  31.2728  31.3763  36.2565  36.3318
    36.7675  36.8157

          k = 0.1250-0.1250 1.3750 (   178 PWs)   bands (ev):

     9.3955   9.5451  10.6079  11.3310  12.0696  12.6591  12.7899  13.5012
    13.5832  13.8263  14.3250  14.5237  28.1627  28.2802  31.5030  31.5751
    32.3449  32.3968

          k =-0.1250 0.6250 0.1250 (   178 PWs)   bands (ev):

     9.3955   9.5451  10.6079  11.3310  12.0696  12.6591  12.7899  13.5012
    13.5832  13.8263  14.3250  14.5237  28.1627  28.2802  31.5030  31.5751
    32.3449  32.3968

          k =-0.1250 0.6250 1.1250 (   179 PWs)   bands (ev):

    10.4063  10.6654  10.8778  11.3119  11.6559  12.3342  12.9540  13.5521
    13.6567  14.5049  19.0540  19.3259  22.3391  22.5395  26.0196  26.1739
    28.3212  28.4156

          k = 0.6250-0.1250 0.8750 (   179 PWs)   bands (ev):

    10.4055  10.6648  10.8789  11.3127  11.6549  12.3335  12.9557  13.5584
    13.6499  14.5050  19.0538  19.3259  22.3393  22.5394  26.0192  26.1741
    28.3213  28.4155

          k = 0.6250-0.1250 1.8750 (   178 PWs)   bands (ev):

     9.3957   9.5449  10.6075  11.3314  12.0712  12.6486  12.8000  13.4890
    13.5992  13.8177  14.3328  14.5194  28.1625  28.2803  31.5032  31.5750
    32.3445  32.3972

          k = 0.3750 0.1250 0.6250 (   174 PWs)   bands (ev):

    10.0297  10.3511  11.0783  11.4495  11.6717  12.1381  12.5400  13.2321
    13.2996  14.1278  15.3394  15.9192  24.1052  24.3124  29.7610  29.8518
    32.9031  32.9749

          k = 0.3750 0.1250 1.6250 (   171 PWs)   bands (ev):

     8.5809   8.6288  11.2757  11.8486  11.9779  12.1594  12.5825  12.8012
    12.9366  13.5820  13.7295  14.4988  27.1130  27.2806  32.6483  32.7164
    39.6153  39.6711

          k =-0.1250-0.8750 0.1250 (   176 PWs)   bands (ev):

     9.7953  10.1909  10.2078  10.8865  12.9002  13.3336  13.6229  13.6927
    14.1129  14.5799  16.8008  17.0445  24.9882  25.1852  26.3854  26.4787
    30.0990  30.1129

          k =-0.1250-0.8750 1.1250 (   176 PWs)   bands (ev):

     9.7961  10.1904  10.2075  10.8866  12.8995  13.3345  13.6455  13.6654
    14.1181  14.5789  16.8009  17.0446  24.9887  25.1850  26.3851  26.4789
    30.0985  30.1133

          k =-0.3750 0.3750 0.3750 (   174 PWs)   bands (ev):

     9.0591   9.3339  11.7995  11.8996  12.3471  12.5497  12.6453  12.6732
    13.3581  13.4121  14.2009  14.2503  23.0172  23.2907  36.9111  37.0573
    39.1992  39.2481

          k =-0.3750 0.3750 1.3750 (   172 PWs)   bands (ev):

     9.6832  10.1798  11.5355  11.9974  12.1400  12.2295  12.7425  12.8069
    13.5971  14.4640  15.5044  15.8933  20.5196  20.9034  33.7423  33.7535
    36.0329  36.0999

          k = 0.3750-0.3750 1.1250 (   176 PWs)   bands (ev):

    10.3884  10.9617  11.0364  11.4977  11.5974  12.2625  12.5487  13.2329
    13.3275  14.2129  17.7736  18.1097  21.2527  21.5431  27.2455  27.3740
    34.3397  34.4014

          k = 0.3750-0.3750 2.1250 (   171 PWs)   bands (ev):

     8.5809   8.6288  11.2757  11.8486  11.9779  12.1594  12.5825  12.8012
    12.9366  13.5820  13.7295  14.4988  27.1130  27.2806  32.6483  32.7164
    39.6153  39.6711

          k = 0.3750-0.1250 0.3750 (   171 PWs)   bands (ev):

     8.5809   8.6288  11.2757  11.8486  11.9779  12.1594  12.5825  12.8012
    12.9366  13.5820  13.7295  14.4988  27.1130  27.2806  32.6483  32.7164
    39.6153  39.6711

          k = 0.3750-0.1250 1.3750 (   174 PWs)   bands (ev):

    10.0297  10.3511  11.0783  11.4495  11.6717  12.1381  12.5400  13.2321
    13.2996  14.1278  15.3394  15.9192  24.1052  24.3124  29.7610  29.8518
    32.9031  32.9749

          k =-0.1250-0.3750 0.3750 (   171 PWs)   bands (ev):

     8.5809   8.6288  11.2758  11.8498  11.9781  12.1585  12.5803  12.7952
    12.9444  13.5888  13.7217  14.4993  27.1131  27.2806  32.6484  32.7163
    39.6149  39.6715

          k =-0.1250-0.3750 1.3750 (   174 PWs)   bands (ev):

    10.0298  10.3510  11.0779  11.4521  11.6700  12.1381  12.5383  13.2386
    13.2944  14.1278  15.3395  15.9191  24.1053  24.3124  29.7612  29.8517
    32.9031  32.9748

          k =-0.3750 0.6250-0.3750 (   172 PWs)   bands (ev):

     9.6832  10.1798  11.5355  11.9974  12.1400  12.2295  12.7425  12.8069
    13.5971  14.4640  15.5044  15.8933  20.5196  20.9034  33.7423  33.7535
    36.0329  36.0999

          k =-0.3750 0.6250 0.6250 (   172 PWs)   bands (ev):

     9.6832  10.1797  11.5386  11.9751  12.1576  12.2408  12.7070  12.8328
    13.5969  14.4639  15.5050  15.8931  20.5196  20.9034  33.7424  33.7536
    36.0322  36.1005

          k = 0.6250 0.3750-0.3750 (   172 PWs)   bands (ev):

     9.6832  10.1797  11.5386  11.9751  12.1576  12.2408  12.7070  12.8328
    13.5969  14.4639  15.5050  15.8931  20.5196  20.9034  33.7424  33.7536
    36.0322  36.1005

          k = 0.6250 0.3750 0.6250 (   172 PWs)   bands (ev):

     9.6832  10.1798  11.5355  11.9974  12.1400  12.2295  12.7425  12.8069
    13.5971  14.4640  15.5044  15.8933  20.5196  20.9034  33.7423  33.7535
    36.0329  36.0999

          k =-0.1250 0.3750-0.1250 (   169 PWs)   bands (ev):

     7.3420   7.3661  11.2039  11.9712  12.0402  12.1837  12.7054  12.8442
    13.0258  13.1843  13.4928  13.9244  31.2728  31.3763  36.2565  36.3318
    36.7675  36.8157

          k =-0.1250 0.3750 0.8750 (   179 PWs)   bands (ev):

    10.4058  10.6648  10.8795  11.3113  11.6550  12.3356  12.9533  13.5545
    13.6546  14.5050  19.0538  19.3258  22.3393  22.5394  26.0192  26.1741
    28.3215  28.4154

          k = 0.3750 0.1250-0.1250 (   169 PWs)   bands (ev):

     7.3420   7.3661  11.2034  11.9733  12.0402  12.1842  12.6888  12.8711
    13.0146  13.1790  13.4981  13.9233  31.2727  31.3764  36.2562  36.3320
    36.7673  36.8159

          k = 0.3750 0.1250 0.8750 (   179 PWs)   bands (ev):

    10.4055  10.6648  10.8789  11.3127  11.6549  12.3335  12.9557  13.5584
    13.6499  14.5050  19.0538  19.3259  22.3393  22.5394  26.0192  26.1741
    28.3213  28.4155

          k = 0.1250 0.1250 0.6250 (   178 PWs)   bands (ev):

     9.3955   9.5451  10.6079  11.3310  12.0696  12.6591  12.7899  13.5012
    13.5832  13.8263  14.3250  14.5237  28.1627  28.2802  31.5030  31.5751
    32.3449  32.3968

          k = 0.1250 0.1250 1.6250 (   169 PWs)   bands (ev):

     7.3420   7.3661  11.2039  11.9712  12.0402  12.1837  12.7054  12.8442
    13.0258  13.1843  13.4928  13.9244  31.2728  31.3763  36.2565  36.3318
    36.7675  36.8157

          k = 0.6250 0.1250-0.1250 (   178 PWs)   bands (ev):

     9.3957   9.5449  10.6075  11.3314  12.0712  12.6486  12.8000  13.4890
    13.5992  13.8177  14.3328  14.5194  28.1625  28.2803  31.5032  31.5750
    32.3445  32.3972

          k = 0.6250 0.1250 0.8750 (   179 PWs)   bands (ev):

    10.4055  10.6648  10.8789  11.3127  11.6549  12.3335  12.9557  13.5584
    13.6499  14.5050  19.0538  19.3259  22.3393  22.5394  26.0192  26.1741
    28.3213  28.4155

          k =-0.6250 0.8750-0.1250 (   179 PWs)   bands (ev):

    10.4055  10.6648  10.8789  11.3127  11.6549  12.3335  12.9557  13.5584
    13.6499  14.5050  19.0538  19.3259  22.3393  22.5394  26.0192  26.1741
    28.3213  28.4155

          k =-0.6250 0.8750 0.8750 (   169 PWs)   bands (ev):

     7.3420   7.3661  11.2034  11.9733  12.0402  12.1842  12.6888  12.8711
    13.0146  13.1790  13.4981  13.9233  31.2727  31.3764  36.2562  36.3320
    36.7673  36.8159

          k =-0.1250 0.8750 0.6250 (   179 PWs)   bands (ev):

    10.4063  10.6654  10.8778  11.3119  11.6559  12.3342  12.9540  13.5521
    13.6567  14.5049  19.0540  19.3259  22.3391  22.5395  26.0196  26.1739
    28.3212  28.4156

          k =-0.1250 0.8750 1.6250 (   179 PWs)   bands (ev):

    10.4058  10.6648  10.8795  11.3113  11.6550  12.3356  12.9533  13.5545
    13.6546  14.5050  19.0538  19.3258  22.3393  22.5394  26.0192  26.1741
    28.3215  28.4154

          k = 0.8750 0.6250-0.1250 (   179 PWs)   bands (ev):

    10.4058  10.6648  10.8795  11.3113  11.6550  12.3356  12.9533  13.5545
    13.6546  14.5050  19.0538  19.3258  22.3393  22.5394  26.0192  26.1741
    28.3215  28.4154

          k = 0.8750 0.6250 0.8750 (   169 PWs)   bands (ev):

     7.3420   7.3661  11.2039  11.9712  12.0402  12.1837  12.7054  12.8442
    13.0258  13.1843  13.4928  13.9244  31.2728  31.3763  36.2565  36.3318
    36.7675  36.8157

          k = 0.8750 0.1250 0.6250 (   179 PWs)   bands (ev):

    10.4058  10.6648  10.8795  11.3113  11.6550  12.3356  12.9533  13.5545
    13.6546  14.5050  19.0538  19.3258  22.3393  22.5394  26.0192  26.1741
    28.3215  28.4154

          k = 0.8750 0.1250 1.6250 (   179 PWs)   bands (ev):

    10.4063  10.6654  10.8778  11.3119  11.6559  12.3342  12.9540  13.5521
    13.6567  14.5049  19.0540  19.3259  22.3391  22.5395  26.0196  26.1739
    28.3212  28.4156

          k = 0.1250-0.6250 0.8750 (   179 PWs)   bands (ev):

    10.4063  10.6654  10.8778  11.3119  11.6559  12.3342  12.9540  13.5521
    13.6567  14.5049  19.0540  19.3259  22.3391  22.5395  26.0196  26.1739
    28.3212  28.4156

          k = 0.1250-0.6250 1.8750 (   178 PWs)   bands (ev):

     9.3955   9.5451  10.6079  11.3310  12.0696  12.6591  12.7899  13.5012
    13.5832  13.8263  14.3250  14.5237  28.1627  28.2802  31.5030  31.5751
    32.3449  32.3968

          k =-0.3750 0.6250 0.1250 (   174 PWs)   bands (ev):

    10.0297  10.3511  11.0783  11.4495  11.6717  12.1381  12.5400  13.2321
    13.2996  14.1278  15.3394  15.9192  24.1052  24.3124  29.7610  29.8518
    32.9031  32.9749

          k =-0.3750 0.6250 1.1250 (   174 PWs)   bands (ev):

    10.0299  10.3508  11.0779  11.4519  11.6703  12.1387  12.5374  13.2467
    13.2861  14.1279  15.3400  15.9190  24.1052  24.3124  29.7610  29.8518
    32.9033  32.9748

          k = 0.1250 0.6250 0.3750 (   174 PWs)   bands (ev):

    10.0298  10.3510  11.0779  11.4521  11.6700  12.1381  12.5383  13.2386
    13.2944  14.1278  15.3395  15.9191  24.1053  24.3124  29.7612  29.8517
    32.9031  32.9748

          k = 0.1250 0.6250 1.3750 (   176 PWs)   bands (ev):

    10.3883  10.9602  11.0405  11.4883  11.6041  12.2659  12.5453  13.2239
    13.3370  14.2125  17.7735  18.1097  21.2528  21.5431  27.2458  27.3739
    34.3392  34.4018

          k = 0.6250 0.3750 0.1250 (   174 PWs)   bands (ev):

    10.0299  10.3508  11.0779  11.4519  11.6703  12.1387  12.5374  13.2467
    13.2861  14.1279  15.3400  15.9190  24.1052  24.3124  29.7610  29.8518
    32.9033  32.9748

          k = 0.6250 0.3750 1.1250 (   174 PWs)   bands (ev):

    10.0297  10.3511  11.0783  11.4495  11.6717  12.1381  12.5400  13.2321
    13.2996  14.1278  15.3394  15.9192  24.1052  24.3124  29.7610  29.8518
    32.9031  32.9749

          k = 0.6250-0.1250 0.3750 (   174 PWs)   bands (ev):

    10.0299  10.3508  11.0779  11.4519  11.6703  12.1387  12.5374  13.2467
    13.2861  14.1279  15.3400  15.9190  24.1052  24.3124  29.7610  29.8518
    32.9033  32.9748

          k = 0.6250-0.1250 1.3750 (   176 PWs)   bands (ev):

    10.3884  10.9617  11.0364  11.4977  11.5974  12.2625  12.5487  13.2329
    13.3275  14.2129  17.7736  18.1097  21.2527  21.5431  27.2455  27.3740
    34.3397  34.4014

          k =-0.1250-0.3750 0.6250 (   174 PWs)   bands (ev):

    10.0298  10.3510  11.0779  11.4521  11.6700  12.1381  12.5383  13.2386
    13.2944  14.1278  15.3395  15.9191  24.1053  24.3124  29.7612  29.8517
    32.9031  32.9748

          k =-0.1250-0.3750 1.6250 (   171 PWs)   bands (ev):

     8.5809   8.6288  11.2758  11.8498  11.9781  12.1585  12.5803  12.7952
    12.9444  13.5888  13.7217  14.4993  27.1131  27.2806  32.6484  32.7163
    39.6149  39.6715

          k = 0.1250 0.1250-0.8750 (   176 PWs)   bands (ev):

     9.7953  10.1909  10.2078  10.8865  12.9002  13.3336  13.6229  13.6927
    14.1129  14.5799  16.8008  17.0445  24.9882  25.1852  26.3854  26.4787
    30.0990  30.1129

          k = 0.1250 0.1250 0.1250 (   172 PWs)   bands (ev):

     5.8330   5.8724  11.5990  11.8256  11.8954  12.4173  12.6608  12.7472
    12.9099  12.9420  13.5954  13.6187  35.2104  35.2414  38.9977  39.1104
    41.0028  41.0226

          k =-0.8750 0.1250-0.1250 (   176 PWs)   bands (ev):

     9.7961  10.1904  10.2075  10.8866  12.8995  13.3345  13.6455  13.6654
    14.1181  14.5789  16.8009  17.0446  24.9887  25.1850  26.3851  26.4789
    30.0985  30.1133

          k =-0.8750 0.1250 0.8750 (   176 PWs)   bands (ev):

     9.7953  10.1909  10.2078  10.8865  12.9002  13.3336  13.6229  13.6927
    14.1129  14.5799  16.8008  17.0445  24.9882  25.1852  26.3854  26.4787
    30.0990  30.1129

          k =-0.3750 1.1250-0.3750 (   176 PWs)   bands (ev):

    10.3884  10.9617  11.0364  11.4977  11.5974  12.2625  12.5487  13.2329
    13.3275  14.2129  17.7736  18.1097  21.2527  21.5431  27.2455  27.3740
    34.3397  34.4014

          k =-0.3750 1.1250 0.6250 (   174 PWs)   bands (ev):

    10.0299  10.3508  11.0779  11.4519  11.6703  12.1387  12.5374  13.2467
    13.2861  14.1279  15.3400  15.9190  24.1052  24.3124  29.7610  29.8518
    32.9033  32.9748

          k = 1.1250 0.3750-0.3750 (   176 PWs)   bands (ev):

    10.3883  10.9602  11.0405  11.4883  11.6041  12.2659  12.5453  13.2239
    13.3370  14.2125  17.7735  18.1097  21.2528  21.5431  27.2458  27.3739
    34.3392  34.4018

          k = 1.1250 0.3750 0.6250 (   174 PWs)   bands (ev):

    10.0298  10.3510  11.0779  11.4521  11.6700  12.1381  12.5383  13.2386
    13.2944  14.1278  15.3395  15.9191  24.1053  24.3124  29.7612  29.8517
    32.9031  32.9748

     the Fermi energy is    14.2805 ev

     Writing output data file ni_so.save

     Fixed quantization axis for GGA:     1.000000    0.000000    0.000000

                                                                                

     bravais-lattice index     =            2
     lattice parameter (alat)  =       6.6500  a.u.
     unit-cell volume          =      73.5199 (a.u.)^3
     number of atoms/cell      =            1
     number of atomic types    =            1
     kinetic-energy cut-off    =      27.0000  Ry
     charge density cut-off    =     300.0000  Ry
     convergence threshold     =      1.0E-14
     beta                      =       0.7000
     number of iterations used =            4
     Exchange-correlation      =  SLA  PW   PBX  PBC ( 1  4  3  4 0 0)
     Noncollinear calculation with spin-orbit

     celldm(1)=    6.65000  celldm(2)=    0.00000  celldm(3)=    0.00000
     celldm(4)=    0.00000  celldm(5)=    0.00000  celldm(6)=    0.00000

     crystal axes: (cart. coord. in units of alat)
               a(1) = ( -0.5000  0.0000  0.5000 )  
               a(2) = (  0.0000  0.5000  0.5000 )  
               a(3) = ( -0.5000  0.5000  0.0000 )  

     reciprocal axes: (cart. coord. in units 2 pi/alat)
               b(1) = ( -1.0000 -1.0000  1.0000 )  
               b(2) = (  1.0000  1.0000  1.0000 )  
               b(3) = ( -1.0000  1.0000 -1.0000 )  


     Atoms inside the unit cell: 

     Cartesian axes

     site n.  atom      mass           positions (alat units)
        1     Ni  58.6934   tau(    1) = (    0.00000    0.00000    0.00000  )

     Computing dynamical matrix for 
                    q = (   0.0000000   0.0000000   1.0000000 )
 
      8 Sym.Ops. (no q -> -q+G )


     G cutoff =  336.0507  (   3213 G-vectors)     FFT grid: ( 27, 27, 27)
     G cutoff =  120.9783  (    707 G-vectors)  smooth grid: ( 15, 15, 15)

     number of k points=    64  Methfessel-Paxton smearing, width (Ry)=  0.0200
                       cart. coord. in units 2pi/alat
        k(    1) = (  -0.1250000   0.1250000   0.1250000), wk =   0.0312500
        k(    2) = (  -0.1250000   0.1250000   1.1250000), wk =   0.0000000
        k(    3) = (  -0.3750000   0.3750000  -0.1250000), wk =   0.0312500
        k(    4) = (  -0.3750000   0.3750000   0.8750000), wk =   0.0000000
        k(    5) = (   0.3750000  -0.3750000   0.6250000), wk =   0.0312500
        k(    6) = (   0.3750000  -0.3750000   1.6250000), wk =   0.0000000
        k(    7) = (   0.1250000  -0.1250000   0.3750000), wk =   0.0312500
        k(    8) = (   0.1250000  -0.1250000   1.3750000), wk =   0.0000000
        k(    9) = (  -0.1250000   0.6250000   0.1250000), wk =   0.0312500
        k(   10) = (  -0.1250000   0.6250000   1.1250000), wk =   0.0000000
        k(   11) = (   0.6250000  -0.1250000   0.8750000), wk =   0.0312500
        k(   12) = (   0.6250000  -0.1250000   1.8750000), wk =   0.0000000
        k(   13) = (   0.3750000   0.1250000   0.6250000), wk =   0.0312500
        k(   14) = (   0.3750000   0.1250000   1.6250000), wk =   0.0000000
        k(   15) = (  -0.1250000  -0.8750000   0.1250000), wk =   0.0312500
        k(   16) = (  -0.1250000  -0.8750000   1.1250000), wk =   0.0000000
        k(   17) = (  -0.3750000   0.3750000   0.3750000), wk =   0.0312500
        k(   18) = (  -0.3750000   0.3750000   1.3750000), wk =   0.0000000
        k(   19) = (   0.3750000  -0.3750000   1.1250000), wk =   0.0312500
        k(   20) = (   0.3750000  -0.3750000   2.1250000), wk =   0.0000000
        k(   21) = (   0.3750000  -0.1250000   0.3750000), wk =   0.0312500
        k(   22) = (   0.3750000  -0.1250000   1.3750000), wk =   0.0000000
        k(   23) = (  -0.1250000  -0.3750000   0.3750000), wk =   0.0312500
        k(   24) = (  -0.1250000  -0.3750000   1.3750000), wk =   0.0000000
        k(   25) = (  -0.3750000   0.6250000  -0.3750000), wk =   0.0312500
        k(   26) = (  -0.3750000   0.6250000   0.6250000), wk =   0.0000000
        k(   27) = (   0.6250000   0.3750000  -0.3750000), wk =   0.0312500
        k(   28) = (   0.6250000   0.3750000   0.6250000), wk =   0.0000000
        k(   29) = (  -0.1250000   0.3750000  -0.1250000), wk =   0.0312500
        k(   30) = (  -0.1250000   0.3750000   0.8750000), wk =   0.0000000
        k(   31) = (   0.3750000   0.1250000  -0.1250000), wk =   0.0312500
        k(   32) = (   0.3750000   0.1250000   0.8750000), wk =   0.0000000
        k(   33) = (   0.1250000   0.1250000   0.6250000), wk =   0.0312500
        k(   34) = (   0.1250000   0.1250000   1.6250000), wk =   0.0000000
        k(   35) = (   0.6250000   0.1250000  -0.1250000), wk =   0.0312500
        k(   36) = (   0.6250000   0.1250000   0.8750000), wk =   0.0000000
        k(   37) = (  -0.6250000   0.8750000  -0.1250000), wk =   0.0312500
        k(   38) = (  -0.6250000   0.8750000   0.8750000), wk =   0.0000000
        k(   39) = (  -0.1250000   0.8750000   0.6250000), wk =   0.0312500
        k(   40) = (  -0.1250000   0.8750000   1.6250000), wk =   0.0000000
        k(   41) = (   0.8750000   0.6250000  -0.1250000), wk =   0.0312500
        k(   42) = (   0.8750000   0.6250000   0.8750000), wk =   0.0000000
        k(   43) = (   0.8750000   0.1250000   0.6250000), wk =   0.0312500
        k(   44) = (   0.8750000   0.1250000   1.6250000), wk =   0.0000000
        k(   45) = (   0.1250000  -0.6250000   0.8750000), wk =   0.0312500
        k(   46) = (   0.1250000  -0.6250000   1.8750000), wk =   0.0000000
        k(   47) = (  -0.3750000   0.6250000   0.1250000), wk =   0.0312500
        k(   48) = (  -0.3750000   0.6250000   1.1250000), wk =   0.0000000
        k(   49) = (   0.1250000   0.6250000   0.3750000), wk =   0.0312500
        k(   50) = (   0.1250000   0.6250000   1.3750000), wk =   0.0000000
        k(   51) = (   0.6250000   0.3750000   0.1250000), wk =   0.0312500
        k(   52) = (   0.6250000   0.3750000   1.1250000), wk =   0.0000000
        k(   53) = (   0.6250000  -0.1250000   0.3750000), wk =   0.0312500
        k(   54) = (   0.6250000  -0.1250000   1.3750000), wk =   0.0000000
        k(   55) = (  -0.1250000  -0.3750000   0.6250000), wk =   0.0312500
        k(   56) = (  -0.1250000  -0.3750000   1.6250000), wk =   0.0000000
        k(   57) = (   0.1250000   0.1250000  -0.8750000), wk =   0.0312500
        k(   58) = (   0.1250000   0.1250000   0.1250000), wk =   0.0000000
        k(   59) = (  -0.8750000   0.1250000  -0.1250000), wk =   0.0312500
        k(   60) = (  -0.8750000   0.1250000   0.8750000), wk =   0.0000000
        k(   61) = (  -0.3750000   1.1250000  -0.3750000), wk =   0.0312500
        k(   62) = (  -0.3750000   1.1250000   0.6250000), wk =   0.0000000
        k(   63) = (   1.1250000   0.3750000  -0.3750000), wk =   0.0312500
        k(   64) = (   1.1250000   0.3750000   0.6250000), wk =   0.0000000

     PseudoPot. # 1 for Ni read from file:
     /home/nvarini/espresso_hdf5/espresso/pseudo/Ni.rel-pbe-nd-rrkjus.UPF
     MD5 check sum: 7e778555a9140027a2981034861e5d4c
     Pseudo is Ultrasoft + core correction, Zval = 10.0
     Generated by new atomic code, or converted to UPF format
     Using radial grid of 1195 points, 10 beta functions with: 
                l(1) =   0
                l(2) =   0
                l(3) =   1
                l(4) =   1
                l(5) =   1
                l(6) =   1
                l(7) =   2
                l(8) =   2
                l(9) =   2
               l(10) =   2
     Q(r) pseudized with 0 coefficients 


     Mode symmetry, D_2h (mmm)  point group:


     Atomic displacements:
     There are   3 irreducible representations

     Representation     1      1 modes -B_1u  To be done

     Representation     2      1 modes -B_2u  To be done

     Representation     3      1 modes -B_3u  To be done



     Alpha used in Ewald sum =   2.8000
     PHONON       :    10.59s CPU        10.75s WALL



     Representation #  1 mode #   1

     Self-consistent Calculation

      iter #   1 total cpu time :    11.8 secs   av.it.:   5.2
      thresh= 1.000E-02 alpha_mix =  0.700 |ddv_scf|^2 =  5.401E-05

      iter #   2 total cpu time :    12.9 secs   av.it.:   8.7
      thresh= 7.349E-04 alpha_mix =  0.700 |ddv_scf|^2 =  3.106E-05

      iter #   3 total cpu time :    13.9 secs   av.it.:   8.0
      thresh= 5.573E-04 alpha_mix =  0.700 |ddv_scf|^2 =  3.091E-09

      iter #   4 total cpu time :    14.9 secs   av.it.:   8.3
      thresh= 5.560E-06 alpha_mix =  0.700 |ddv_scf|^2 =  4.227E-11

      iter #   5 total cpu time :    15.9 secs   av.it.:   7.8
      thresh= 6.502E-07 alpha_mix =  0.700 |ddv_scf|^2 =  1.776E-12

      iter #   6 total cpu time :    16.9 secs   av.it.:   8.0
      thresh= 1.332E-07 alpha_mix =  0.700 |ddv_scf|^2 =  8.686E-14

      iter #   7 total cpu time :    18.0 secs   av.it.:   8.5
      thresh= 2.947E-08 alpha_mix =  0.700 |ddv_scf|^2 =  1.698E-15

     End of self-consistent calculation

     Convergence has been achieved 


     Representation #  2 mode #   2

     Self-consistent Calculation

      iter #   1 total cpu time :    19.1 secs   av.it.:   4.5
      thresh= 1.000E-02 alpha_mix =  0.700 |ddv_scf|^2 =  6.402E-06

      iter #   2 total cpu time :    20.2 secs   av.it.:   8.7
      thresh= 2.530E-04 alpha_mix =  0.700 |ddv_scf|^2 =  2.370E-07

      iter #   3 total cpu time :    21.2 secs   av.it.:   8.6
      thresh= 4.868E-05 alpha_mix =  0.700 |ddv_scf|^2 =  1.001E-09

      iter #   4 total cpu time :    22.3 secs   av.it.:   8.1
      thresh= 3.164E-06 alpha_mix =  0.700 |ddv_scf|^2 =  5.730E-12

      iter #   5 total cpu time :    23.4 secs   av.it.:   7.9
      thresh= 2.394E-07 alpha_mix =  0.700 |ddv_scf|^2 =  4.573E-13

      iter #   6 total cpu time :    24.4 secs   av.it.:   8.2
      thresh= 6.763E-08 alpha_mix =  0.700 |ddv_scf|^2 =  2.563E-14

      iter #   7 total cpu time :    25.5 secs   av.it.:   8.4
      thresh= 1.601E-08 alpha_mix =  0.700 |ddv_scf|^2 =  2.275E-16

     End of self-consistent calculation

     Convergence has been achieved 


     Representation #  3 mode #   3

     Self-consistent Calculation

      iter #   1 total cpu time :    26.6 secs   av.it.:   4.5
      thresh= 1.000E-02 alpha_mix =  0.700 |ddv_scf|^2 =  6.402E-06

      iter #   2 total cpu time :    27.7 secs   av.it.:   8.6
      thresh= 2.530E-04 alpha_mix =  0.700 |ddv_scf|^2 =  2.371E-07

      iter #   3 total cpu time :    29.0 secs   av.it.:   8.6
      thresh= 4.869E-05 alpha_mix =  0.700 |ddv_scf|^2 =  1.020E-09

      iter #   4 total cpu time :    30.0 secs   av.it.:   8.1
      thresh= 3.193E-06 alpha_mix =  0.700 |ddv_scf|^2 =  8.156E-12

      iter #   5 total cpu time :    31.0 secs   av.it.:   8.0
      thresh= 2.856E-07 alpha_mix =  0.700 |ddv_scf|^2 =  7.094E-13

      iter #   6 total cpu time :    32.1 secs   av.it.:   8.2
      thresh= 8.423E-08 alpha_mix =  0.700 |ddv_scf|^2 =  3.497E-14

      iter #   7 total cpu time :    33.1 secs   av.it.:   8.4
      thresh= 1.870E-08 alpha_mix =  0.700 |ddv_scf|^2 =  4.121E-16

     End of self-consistent calculation

     Convergence has been achieved 
 
     Number of q in the star =    2
     List of q in the star:
          1   0.000000000   0.000000000   1.000000000
          2   0.000000000   1.000000000   0.000000000

     Diagonalizing the dynamical matrix

     q = (    0.000000000   0.000000000   1.000000000 ) 

 **************************************************************************
     freq (    1) =       6.413789 [THz] =     213.940978 [cm-1]
     freq (    2) =       6.414989 [THz] =     213.981010 [cm-1]
     freq (    3) =       8.495330 [THz] =     283.373717 [cm-1]
 **************************************************************************

     Mode symmetry, D_2h (mmm)  [C_2h (2/m) ] magnetic point group:

     freq (  1 -  1) =        213.9  [cm-1]   --> B_2u               
     freq (  2 -  2) =        214.0  [cm-1]   --> B_3u               
     freq (  3 -  3) =        283.4  [cm-1]   --> B_1u               
 
     init_run     :      0.58s CPU      0.60s WALL (       1 calls)
     electrons    :      3.97s CPU      4.06s WALL (       1 calls)

     Called by init_run:
     wfcinit      :      0.00s CPU      0.00s WALL (       1 calls)
     potinit      :      0.03s CPU      0.03s WALL (       1 calls)

     Called by electrons:
     c_bands      :      3.97s CPU      4.05s WALL (       1 calls)
     v_of_rho     :      0.04s CPU      0.04s WALL (       2 calls)
     newd         :      0.15s CPU      0.16s WALL (       2 calls)

     Called by c_bands:
     init_us_2    :      0.04s CPU      0.06s WALL (     960 calls)
     cegterg      :      3.61s CPU      3.67s WALL (      68 calls)

     Called by sum_band:

     Called by *egterg:
     h_psi        :     12.26s CPU     12.62s WALL (    7376 calls)
     s_psi        :      1.78s CPU      1.72s WALL (   14380 calls)
     g_psi        :      0.01s CPU      0.02s WALL (     912 calls)
     cdiaghg      :      1.20s CPU      1.21s WALL (     976 calls)

     Called by h_psi:
     add_vuspsi   :      0.88s CPU      0.87s WALL (    7376 calls)

     General routines
     calbec       :      1.20s CPU      1.01s WALL (   15980 calls)
     fft          :      0.21s CPU      0.22s WALL (    1132 calls)
     ffts         :      0.01s CPU      0.01s WALL (     296 calls)
     fftw         :      9.41s CPU     10.30s WALL (  348408 calls)
     interpolate  :      0.04s CPU      0.05s WALL (     188 calls)
     davcio       :      0.10s CPU      0.38s WALL (    2263 calls)
 
     Parallel routines
     fft_scatter  :      2.30s CPU      3.23s WALL (  349836 calls)
 
     PHONON       :    32.00s CPU        33.26s WALL

     INITIALIZATION: 
     phq_setup    :      0.11s CPU      0.11s WALL (       1 calls)
     phq_init     :      4.72s CPU      4.74s WALL (       1 calls)
 
     phq_init     :      4.72s CPU      4.74s WALL (       1 calls)
     set_drhoc    :      0.27s CPU      0.27s WALL (       3 calls)
     init_vloc    :      0.00s CPU      0.00s WALL (       2 calls)
     init_us_1    :      0.87s CPU      0.88s WALL (       2 calls)
     newd         :      0.15s CPU      0.16s WALL (       2 calls)
     dvanqq       :      0.43s CPU      0.43s WALL (       1 calls)
     drho         :      3.58s CPU      3.59s WALL (       1 calls)
 
     DYNAMICAL MATRIX:
     dynmat0      :      0.56s CPU      0.56s WALL (       1 calls)
     phqscf       :     21.40s CPU     22.51s WALL (       1 calls)
     dynmatrix    :      0.01s CPU      0.01s WALL (       1 calls)
 
     phqscf       :     21.40s CPU     22.51s WALL (       1 calls)
     solve_linter :     21.08s CPU     22.18s WALL (       3 calls)
     drhodv       :      0.31s CPU      0.32s WALL (       3 calls)
 
     dynmat0      :      0.56s CPU      0.56s WALL (       1 calls)
     dynmat_us    :      0.36s CPU      0.36s WALL (       1 calls)
     d2ionq       :      0.00s CPU      0.00s WALL (       1 calls)
     dynmatcc     :      0.20s CPU      0.20s WALL (       1 calls)
 
     dynmat_us    :      0.36s CPU      0.36s WALL (       1 calls)
     addusdynmat  :      0.02s CPU      0.02s WALL (       1 calls)
 
     phqscf       :     21.40s CPU     22.51s WALL (       1 calls)
     solve_linter :     21.08s CPU     22.18s WALL (       3 calls)
 
     solve_linter :     21.08s CPU     22.18s WALL (       3 calls)
     dvqpsi_us    :      0.90s CPU      0.94s WALL (      96 calls)
     ortho        :      0.27s CPU      0.29s WALL (     672 calls)
     cgsolve      :     12.56s CPU     13.08s WALL (     672 calls)
     incdrhoscf   :      1.31s CPU      1.36s WALL (     672 calls)
     addusddens   :      1.71s CPU      1.71s WALL (      24 calls)
     vpsifft      :      0.86s CPU      0.91s WALL (     576 calls)
     dv_of_drho   :      0.31s CPU      0.31s WALL (      21 calls)
     mix_pot      :      0.08s CPU      0.11s WALL (      21 calls)
     psymdvscf    :      0.24s CPU      0.24s WALL (      21 calls)
     newdq        :      1.42s CPU      1.43s WALL (      21 calls)
     adddvscf     :      0.43s CPU      0.44s WALL (     576 calls)
     drhodvus     :      0.00s CPU      0.00s WALL (       3 calls)
 
     dvqpsi_us    :      0.90s CPU      0.94s WALL (      96 calls)
     dvqpsi_us_on :      0.69s CPU      0.71s WALL (      96 calls)
 
     cgsolve      :     12.56s CPU     13.08s WALL (     672 calls)
     ch_psi       :     12.42s CPU     12.83s WALL (    6332 calls)
 
     ch_psi       :     12.42s CPU     12.83s WALL (    6332 calls)
     last         :      1.45s CPU      1.52s WALL (    6332 calls)
 
     add_vuspsi   :      0.88s CPU      0.87s WALL (    7376 calls)
 
     incdrhoscf   :      1.31s CPU      1.36s WALL (     672 calls)
 
     drhodvus     :      0.00s CPU      0.00s WALL (       3 calls)
 
      General routines
     calbec       :      1.20s CPU      1.01s WALL (   15980 calls)
     fft          :      0.21s CPU      0.22s WALL (    1132 calls)
     ffts         :      0.01s CPU      0.01s WALL (     296 calls)
     fftw         :      9.41s CPU     10.30s WALL (  348408 calls)
     davcio       :      0.10s CPU      0.38s WALL (    2263 calls)
     write_rec    :      0.03s CPU      0.07s WALL (      24 calls)
 
 
     PHONON       :    32.00s CPU        33.26s WALL

 
   This run was terminated on:  10:40:22   3Aug2016            

=------------------------------------------------------------------------------=
   JOB DONE.
=------------------------------------------------------------------------------=
