
     Program PHONON v.5.4.0 (svn rev. 12590M) starts on 21Jul2016 at 15:59:13 

     This program is part of the open-source Quantum ESPRESSO suite
     for quantum simulation of materials; please cite
         "P. Giannozzi et al., J. Phys.:Condens. Matter 21 395502 (2009);
          URL http://www.quantum-espresso.org", 
     in publications or presentations arising from this work. More details at
     http://www.quantum-espresso.org/quote
 
           HOST :    x86_64-pc-linux-gnu
           ARCH :    x86_64
             CC :    icc
            CPP :    cpp
            F90 :    gfortran
            F77 :    gfortran
         DFLAGS :    -D__GFORTRAN -D__STD_F95 -D__DFTI -D__MPI -D__PARA -D__HDF5
      BLAS LIBS :    -lmkl_gf_lp64  -lmkl_sequential -lmkl_core
    LAPACK LIBS :    
       FFT LIBS :    
      MASS LIBS :    

     Parallel version (MPI), running on     2 processors
     R & G space division:  proc/nbgrp/npool/nimage =       2

     Reading data from directory:
     /home/nvarini/espresso_hdf5/espresso/tempdir/ni_so.save

   Info: using nr1, nr2, nr3 values from input

   Info: using nr1, nr2, nr3 values from input

     IMPORTANT: XC functional enforced from input :
     Exchange-correlation      =  SLA  PW   PBX  PBC ( 1  4  3  4 0 0)
     Any further DFT definition will be discarded
     Please, verify this is what you really want

 
     Parallelization info
     --------------------
     sticks:   dense  smooth     PW     G-vecs:    dense   smooth      PW
     Min         225      81     30                 3210      705     165
     Max         226      82     31                 3213      706     166
     Sum         451     163     61                 6423     1411     331
 

     Check: negative/imaginary core charge=   -0.000003    0.000000

     Calculation of q =    0.0000000   0.0000000   0.0000000

     Fixed quantization axis for GGA:     1.000000    0.000000    0.000000

                                                                                

     bravais-lattice index     =            2
     lattice parameter (alat)  =       6.6500  a.u.
     unit-cell volume          =      73.5199 (a.u.)^3
     number of atoms/cell      =            1
     number of atomic types    =            1
     kinetic-energy cut-off    =      27.0000  Ry
     charge density cut-off    =     300.0000  Ry
     convergence threshold     =      1.0E-16
     beta                      =       0.7000
     number of iterations used =            4
     Exchange-correlation      =  SLA  PW   PBX  PBC ( 1  4  3  4 0 0)
     Noncollinear calculation with spin-orbit

     celldm(1)=    6.65000  celldm(2)=    0.00000  celldm(3)=    0.00000
     celldm(4)=    0.00000  celldm(5)=    0.00000  celldm(6)=    0.00000

     crystal axes: (cart. coord. in units of alat)
               a(1) = ( -0.5000  0.0000  0.5000 )  
               a(2) = (  0.0000  0.5000  0.5000 )  
               a(3) = ( -0.5000  0.5000  0.0000 )  

     reciprocal axes: (cart. coord. in units 2 pi/alat)
               b(1) = ( -1.0000 -1.0000  1.0000 )  
               b(2) = (  1.0000  1.0000  1.0000 )  
               b(3) = ( -1.0000  1.0000 -1.0000 )  


     Atoms inside the unit cell: 

     Cartesian axes

     site n.  atom      mass           positions (alat units)
        1     Ni  58.6934   tau(    1) = (    0.00000    0.00000    0.00000  )

     Computing dynamical matrix for 
                    q = (   0.0000000   0.0000000   0.0000000 )
 
     16 Sym.Ops. (no q -> -q+G )


     G cutoff =  336.0507  (   3213 G-vectors)     FFT grid: ( 27, 27, 27)
     G cutoff =  120.9783  (    705 G-vectors)  smooth grid: ( 15, 15, 15)

     number of k points=    20  Methfessel-Paxton smearing, width (Ry)=  0.0200
                       cart. coord. in units 2pi/alat
        k(    1) = (  -0.1250000   0.1250000   0.1250000), wk =   0.0312500
        k(    2) = (  -0.3750000   0.3750000  -0.1250000), wk =   0.0625000
        k(    3) = (   0.3750000  -0.3750000   0.6250000), wk =   0.0625000
        k(    4) = (   0.1250000  -0.1250000   0.3750000), wk =   0.0625000
        k(    5) = (  -0.1250000   0.6250000   0.1250000), wk =   0.0625000
        k(    6) = (   0.6250000  -0.1250000   0.8750000), wk =   0.0625000
        k(    7) = (   0.3750000   0.1250000   0.6250000), wk =   0.0625000
        k(    8) = (  -0.1250000  -0.8750000   0.1250000), wk =   0.0625000
        k(    9) = (  -0.3750000   0.3750000   0.3750000), wk =   0.0312500
        k(   10) = (   0.3750000  -0.3750000   1.1250000), wk =   0.0625000
        k(   11) = (  -0.1250000  -0.3750000   0.3750000), wk =   0.0312500
        k(   12) = (   0.6250000   0.3750000  -0.3750000), wk =   0.0312500
        k(   13) = (   0.3750000   0.1250000  -0.1250000), wk =   0.0312500
        k(   14) = (   0.6250000   0.1250000  -0.1250000), wk =   0.0312500
        k(   15) = (  -0.1250000   0.8750000   0.6250000), wk =   0.0625000
        k(   16) = (   0.8750000   0.6250000  -0.1250000), wk =   0.0625000
        k(   17) = (   0.1250000   0.6250000   0.3750000), wk =   0.0625000
        k(   18) = (   0.6250000   0.3750000   0.1250000), wk =   0.0625000
        k(   19) = (  -0.8750000   0.1250000  -0.1250000), wk =   0.0312500
        k(   20) = (   1.1250000   0.3750000  -0.3750000), wk =   0.0312500

     PseudoPot. # 1 for Ni read from file:
     /home/nvarini/espresso_hdf5/espresso/pseudo/Ni.rel-pbe-nd-rrkjus.UPF
     MD5 check sum: 7e778555a9140027a2981034861e5d4c
     Pseudo is Ultrasoft + core correction, Zval = 10.0
     Generated by new atomic code, or converted to UPF format
     Using radial grid of 1195 points, 10 beta functions with: 
                l(1) =   0
                l(2) =   0
                l(3) =   1
                l(4) =   1
                l(5) =   1
                l(6) =   1
                l(7) =   2
                l(8) =   2
                l(9) =   2
               l(10) =   2
     Q(r) pseudized with 0 coefficients 


     Mode symmetry, D_4h(4/mmm) point group:


     Atomic displacements:
     There are   2 irreducible representations

     Representation     1      1 modes -A_2u X_4' M_4'  To be done

     Representation     2      2 modes -E_u  X_5' M_5'  To be done



     Alpha used in Ewald sum =   2.8000
     PHONON       :     4.35s CPU         4.37s WALL



     Representation #  1 mode #   1

     Self-consistent Calculation
 
     Pert. #  1: Fermi energy shift (Ry) =     0.0000E+00     0.0000E+00

      iter #   1 total cpu time :     5.1 secs   av.it.:   4.1
      thresh= 1.000E-02 alpha_mix =  0.700 |ddv_scf|^2 =  2.506E-06
 
     Pert. #  1: Fermi energy shift (Ry) =     0.0000E+00     0.0000E+00

      iter #   2 total cpu time :     5.8 secs   av.it.:   8.3
      thresh= 1.583E-04 alpha_mix =  0.700 |ddv_scf|^2 =  8.374E-09
 
     Pert. #  1: Fermi energy shift (Ry) =     0.0000E+00     0.0000E+00

      iter #   3 total cpu time :     6.5 secs   av.it.:   7.5
      thresh= 9.151E-06 alpha_mix =  0.700 |ddv_scf|^2 =  8.457E-10
 
     Pert. #  1: Fermi energy shift (Ry) =     0.0000E+00     0.0000E+00

      iter #   4 total cpu time :     7.2 secs   av.it.:   7.7
      thresh= 2.908E-06 alpha_mix =  0.700 |ddv_scf|^2 =  9.952E-12
 
     Pert. #  1: Fermi energy shift (Ry) =     0.0000E+00     0.0000E+00

      iter #   5 total cpu time :     7.8 secs   av.it.:   7.8
      thresh= 3.155E-07 alpha_mix =  0.700 |ddv_scf|^2 =  1.888E-13
 
     Pert. #  1: Fermi energy shift (Ry) =     0.0000E+00     0.0000E+00

      iter #   6 total cpu time :     8.5 secs   av.it.:   7.8
      thresh= 4.345E-08 alpha_mix =  0.700 |ddv_scf|^2 =  1.282E-15
 
     Pert. #  1: Fermi energy shift (Ry) =     0.0000E+00     0.0000E+00

      iter #   7 total cpu time :     9.2 secs   av.it.:   8.0
      thresh= 3.581E-09 alpha_mix =  0.700 |ddv_scf|^2 =  9.322E-17
 
     Pert. #  1: Fermi energy shift (Ry) =     0.0000E+00     0.0000E+00

      iter #   8 total cpu time :     9.9 secs   av.it.:   8.0
      thresh= 9.655E-10 alpha_mix =  0.700 |ddv_scf|^2 =  1.608E-18

     End of self-consistent calculation

     Convergence has been achieved 


     Representation #  2 modes #   2  3

     Self-consistent Calculation
 
     Pert. #  1: Fermi energy shift (Ry) =     0.0000E+00     0.0000E+00
     Pert. #  2: Fermi energy shift (Ry) =     0.0000E+00     0.0000E+00

      iter #   1 total cpu time :    11.3 secs   av.it.:   4.2
      thresh= 1.000E-02 alpha_mix =  0.700 |ddv_scf|^2 =  6.264E-07
 
     Pert. #  1: Fermi energy shift (Ry) =     0.0000E+00     0.0000E+00
     Pert. #  2: Fermi energy shift (Ry) =     0.0000E+00     0.0000E+00

      iter #   2 total cpu time :    12.7 secs   av.it.:   9.0
      thresh= 7.914E-05 alpha_mix =  0.700 |ddv_scf|^2 =  2.074E-09
 
     Pert. #  1: Fermi energy shift (Ry) =     0.0000E+00     0.0000E+00
     Pert. #  2: Fermi energy shift (Ry) =     0.0000E+00     0.0000E+00

      iter #   3 total cpu time :    14.0 secs   av.it.:   8.4
      thresh= 4.554E-06 alpha_mix =  0.700 |ddv_scf|^2 =  2.059E-10
 
     Pert. #  1: Fermi energy shift (Ry) =     0.0000E+00     0.0000E+00
     Pert. #  2: Fermi energy shift (Ry) =     0.0000E+00     0.0000E+00

      iter #   4 total cpu time :    15.4 secs   av.it.:   8.6
      thresh= 1.435E-06 alpha_mix =  0.700 |ddv_scf|^2 =  1.877E-12
 
     Pert. #  1: Fermi energy shift (Ry) =     0.0000E+00     0.0000E+00
     Pert. #  2: Fermi energy shift (Ry) =     0.0000E+00     0.0000E+00

      iter #   5 total cpu time :    16.8 secs   av.it.:   8.7
      thresh= 1.370E-07 alpha_mix =  0.700 |ddv_scf|^2 =  3.796E-14
 
     Pert. #  1: Fermi energy shift (Ry) =     0.0000E+00     0.0000E+00
     Pert. #  2: Fermi energy shift (Ry) =     0.0000E+00     0.0000E+00

      iter #   6 total cpu time :    18.1 secs   av.it.:   8.7
      thresh= 1.948E-08 alpha_mix =  0.700 |ddv_scf|^2 =  2.943E-16
 
     Pert. #  1: Fermi energy shift (Ry) =     0.0000E+00     0.0000E+00
     Pert. #  2: Fermi energy shift (Ry) =     0.0000E+00     0.0000E+00

      iter #   7 total cpu time :    19.4 secs   av.it.:   8.7
      thresh= 1.715E-09 alpha_mix =  0.700 |ddv_scf|^2 =  1.996E-17

     End of self-consistent calculation

     Convergence has been achieved 
 
     Number of q in the star =    1
     List of q in the star:
          1   0.000000000   0.000000000   0.000000000

     Diagonalizing the dynamical matrix

     q = (    0.000000000   0.000000000   0.000000000 ) 

 **************************************************************************
     freq (    1) =      -0.406328 [THz] =     -13.553629 [cm-1]
     freq (    2) =      -0.326004 [THz] =     -10.874315 [cm-1]
     freq (    3) =      -0.326004 [THz] =     -10.874315 [cm-1]
 **************************************************************************

     Mode symmetry, D_4h(4/mmm) [C_4h (4/m) ] magnetic point group:

     freq (  1 -  1) =        -13.6  [cm-1]   --> A_2u X_4' M_4'  I  
     freq (  2 -  3) =        -10.9  [cm-1]   --> E_u  X_5' M_5'  I  
 
     PHONON       :    18.87s CPU        19.56s WALL

     INITIALIZATION: 
     phq_setup    :      0.10s CPU      0.11s WALL (       1 calls)
     phq_init     :      3.18s CPU      3.18s WALL (       1 calls)
 
     phq_init     :      3.18s CPU      3.18s WALL (       1 calls)
     set_drhoc    :      0.27s CPU      0.27s WALL (       3 calls)
     init_vloc    :      0.00s CPU      0.00s WALL (       1 calls)
     init_us_1    :      0.43s CPU      0.43s WALL (       1 calls)
     newd         :      0.08s CPU      0.08s WALL (       1 calls)
     dvanqq       :      0.36s CPU      0.36s WALL (       1 calls)
     drho         :      2.24s CPU      2.24s WALL (       1 calls)
 
     DYNAMICAL MATRIX:
     dynmat0      :      0.44s CPU      0.44s WALL (       1 calls)
     phqscf       :     14.51s CPU     15.18s WALL (       1 calls)
     dynmatrix    :      0.01s CPU      0.01s WALL (       1 calls)
 
     phqscf       :     14.51s CPU     15.18s WALL (       1 calls)
     solve_linter :     14.36s CPU     15.03s WALL (       2 calls)
     drhodv       :      0.14s CPU      0.14s WALL (       2 calls)
 
     dynmat0      :      0.44s CPU      0.44s WALL (       1 calls)
     dynmat_us    :      0.24s CPU      0.24s WALL (       1 calls)
     d2ionq       :      0.00s CPU      0.00s WALL (       1 calls)
     dynmatcc     :      0.20s CPU      0.20s WALL (       1 calls)
 
     dynmat_us    :      0.24s CPU      0.24s WALL (       1 calls)
     addusdynmat  :      0.03s CPU      0.03s WALL (       1 calls)
 
     phqscf       :     14.51s CPU     15.18s WALL (       1 calls)
     solve_linter :     14.36s CPU     15.03s WALL (       2 calls)
 
     solve_linter :     14.36s CPU     15.03s WALL (       2 calls)
     dvqpsi_us    :      0.57s CPU      0.59s WALL (      60 calls)
     ortho        :      0.18s CPU      0.19s WALL (     440 calls)
     cgsolve      :      8.05s CPU      8.35s WALL (     440 calls)
     incdrhoscf   :      0.83s CPU      0.87s WALL (     440 calls)
     addusddens   :      0.91s CPU      0.91s WALL (      17 calls)
     vpsifft      :      0.55s CPU      0.58s WALL (     380 calls)
     dv_of_drho   :      0.32s CPU      0.33s WALL (      22 calls)
     mix_pot      :      0.07s CPU      0.25s WALL (      15 calls)
     ef_shift     :      0.01s CPU      0.01s WALL (      17 calls)
     localdos     :      0.25s CPU      0.25s WALL (       2 calls)
     psymdvscf    :      0.37s CPU      0.37s WALL (      15 calls)
     newdq        :      0.91s CPU      0.92s WALL (      15 calls)
     adddvscf     :      0.28s CPU      0.28s WALL (     380 calls)
     drhodvus     :      0.00s CPU      0.00s WALL (       2 calls)
 
     dvqpsi_us    :      0.57s CPU      0.59s WALL (      60 calls)
     dvqpsi_us_on :      0.45s CPU      0.45s WALL (      60 calls)
 
     cgsolve      :      8.05s CPU      8.35s WALL (     440 calls)
     ch_psi       :      7.94s CPU      8.19s WALL (    4131 calls)
 
     ch_psi       :      7.94s CPU      8.19s WALL (    4131 calls)
     last         :      0.94s CPU      0.99s WALL (    4131 calls)
 
     add_vuspsi   :      0.47s CPU      0.47s WALL (    4131 calls)
 
     incdrhoscf   :      0.83s CPU      0.87s WALL (     440 calls)
 
     drhodvus     :      0.00s CPU      0.00s WALL (       2 calls)
 
      General routines
     calbec       :      0.72s CPU      0.63s WALL (    9682 calls)
     fft          :      0.25s CPU      0.27s WALL (    1205 calls)
     ffts         :      0.04s CPU      0.04s WALL (    1133 calls)
     fftw         :      5.22s CPU      5.57s WALL (  197592 calls)
     davcio       :      0.06s CPU      0.23s WALL (    1583 calls)
     write_rec    :      0.03s CPU      0.06s WALL (      17 calls)
 
 
     PHONON       :    18.87s CPU        19.56s WALL

 
   This run was terminated on:  15:59:32  21Jul2016            

=------------------------------------------------------------------------------=
   JOB DONE.
=------------------------------------------------------------------------------=
