
     Program PHONON v.5.4.0 (svn rev. 12620M) starts on 28Jul2016 at 11:12:21 

     This program is part of the open-source Quantum ESPRESSO suite
     for quantum simulation of materials; please cite
         "P. Giannozzi et al., J. Phys.:Condens. Matter 21 395502 (2009);
          URL http://www.quantum-espresso.org", 
     in publications or presentations arising from this work. More details at
     http://www.quantum-espresso.org/quote
 
           HOST :    x86_64-pc-linux-gnu
           ARCH :    x86_64
             CC :    icc
            CPP :    cpp
            F90 :    ifort
            F77 :    ifort
         DFLAGS :    -D__INTEL -D__FFTW -D__MPI -D__PARA -D__HDF5
      BLAS LIBS :    -lmkl_intel_lp64  -lmkl_sequential -lmkl_core
    LAPACK LIBS :    
       FFT LIBS :    
      MASS LIBS :    

     Parallel version (MPI), running on     2 processors
     R & G space division:  proc/nbgrp/npool/nimage =       2

     Reading data from directory:
     /home/nvarini/espresso_hdf5/espresso/tempdir/Pt_pbe.save

   Info: using nr1, nr2, nr3 values from input

   Info: using nr1, nr2, nr3 values from input

     IMPORTANT: XC functional enforced from input :
     Exchange-correlation      =  SLA  PW   PBX  PBC ( 1  4  3  4 0 0)
     Any further DFT definition will be discarded
     Please, verify this is what you really want

 
     Parallelization info
     --------------------
     sticks:   dense  smooth     PW     G-vecs:    dense   smooth      PW
     Min         291     120     36                 4703     1208     205
     Max         292     121     37                 4706     1213     206
     Sum         583     241     73                 9409     2421     411
 

     Calculation of q =    1.0000000   0.0000000   0.0000000
 
     Parallelization info
     --------------------
     sticks:   dense  smooth     PW     G-vecs:    dense   smooth      PW
     Min         291     120     45                 4703     1207     304
     Max         292     121     46                 4706     1214     305
     Sum         583     241     91                 9409     2421     609
 


     bravais-lattice index     =            2
     lattice parameter (alat)  =       7.5500  a.u.
     unit-cell volume          =     107.5922 (a.u.)^3
     number of atoms/cell      =            1
     number of atomic types    =            1
     number of electrons       =        10.00
     number of Kohn-Sham states=           18
     kinetic-energy cutoff     =      30.0000  Ry
     charge density cutoff     =     300.0000  Ry
     Exchange-correlation      =  SLA  PW   PBX  PBC ( 1  4  3  4 0 0)
     Non magnetic calculation with spin-orbit


     celldm(1)=   7.550000  celldm(2)=   0.000000  celldm(3)=   0.000000
     celldm(4)=   0.000000  celldm(5)=   0.000000  celldm(6)=   0.000000

     crystal axes: (cart. coord. in units of alat)
               a(1) = (  -0.500000   0.000000   0.500000 )  
               a(2) = (   0.000000   0.500000   0.500000 )  
               a(3) = (  -0.500000   0.500000   0.000000 )  

     reciprocal axes: (cart. coord. in units 2 pi/alat)
               b(1) = ( -1.000000 -1.000000  1.000000 )  
               b(2) = (  1.000000  1.000000  1.000000 )  
               b(3) = ( -1.000000  1.000000 -1.000000 )  


     PseudoPot. # 1 for Pt read from file:
     /home/nvarini/espresso_hdf5/espresso/pseudo/Pt.rel-pbe-n-rrkjus.UPF
     MD5 check sum: f1163e321df7e874ff6c87b26313b9cd
     Pseudo is Ultrasoft + core correction, Zval = 10.0
     Generated by new atomic code, or converted to UPF format
     Using radial grid of 1277 points,  6 beta functions with: 
                l(1) =   2
                l(2) =   2
                l(3) =   2
                l(4) =   2
                l(5) =   1
                l(6) =   1
     Q(r) pseudized with 0 coefficients 


     atomic species   valence    mass     pseudopotential
        Pt            10.00   195.07800     Pt( 1.00)

     48 Sym. Ops., with inversion, found



   Cartesian axes

     site n.     atom                  positions (alat units)
         1           Pt  tau(   1) = (   0.0000000   0.0000000   0.0000000  )

     number of k points=     6  Methfessel-Paxton smearing, width (Ry)=  0.0200
                       cart. coord. in units 2pi/alat
        k(    1) = (  -0.2500000   0.2500000   0.2500000), wk =   0.2500000
        k(    2) = (   0.7500000   0.2500000   0.2500000), wk =   0.0000000
        k(    3) = (   0.2500000  -0.2500000   0.7500000), wk =   0.5000000
        k(    4) = (   1.2500000  -0.2500000   0.7500000), wk =   0.0000000
        k(    5) = (   0.7500000   0.2500000  -0.2500000), wk =   0.2500000
        k(    6) = (   1.7500000   0.2500000  -0.2500000), wk =   0.0000000

     Dense  grid:     9409 G-vectors     FFT dimensions: (  30,  30,  30)

     Smooth grid:     2421 G-vectors     FFT dimensions: (  20,  20,  20)

     Largest allocated arrays     est. size (Mb)     dimensions
        Kohn-Sham Wavefunctions         0.09 Mb     (     312,   18)
        NL pseudopotentials             0.06 Mb     (     156,   26)
        Each V/rho on FFT grid          0.21 Mb     (   13500)
        Each G-vector array             0.04 Mb     (    4703)
        G-vector shells                 0.00 Mb     (     147)
     Largest temporary arrays     est. size (Mb)     dimensions
        Auxiliary wavefunctions         0.34 Mb     (     312,   72)
        Each subspace H/S matrix        0.08 Mb     (      72,   72)
        Each <psi_i|beta_j> matrix      0.01 Mb     (      26,   2,   18)

     The potential is recalculated from file :
     /home/nvarini/espresso_hdf5/espresso/tempdir/_ph0/Pt_pbe.save/charge-density.hdf5

     Starting wfc are   12 atomic +    6 random wfc

     Band Structure Calculation
     Davidson diagonalization with overlap

     ethr =  1.00E-10,  avg # of iterations = 14.8

     total cpu time spent up to now is        1.0 secs

     End of band structure calculation

          k =-0.2500 0.2500 0.2500 (   302 PWs)   bands (ev):

     8.9305   8.9305  12.7054  12.7054  12.9119  12.9119  14.1045  14.1045
    15.2417  15.2417  15.8177  15.8177  29.8118  29.8118  34.7512  34.7512
    38.2229  38.2229

          k = 0.7500 0.2500 0.2500 (   298 PWs)   bands (ev):

    10.8397  10.8397  11.8852  11.8852  13.3010  13.3010  14.8260  14.8260
    16.8893  16.8893  19.5990  19.5990  23.8498  23.8498  30.2151  30.2151
    32.4551  32.4551

          k = 0.2500-0.2500 0.7500 (   298 PWs)   bands (ev):

    10.8397  10.8397  11.8852  11.8852  13.3010  13.3010  14.8260  14.8260
    16.8893  16.8893  19.5990  19.5990  23.8498  23.8498  30.2151  30.2151
    32.4551  32.4551

          k = 1.2500-0.2500 0.7500 (   298 PWs)   bands (ev):

    10.8397  10.8397  11.8852  11.8852  13.3010  13.3010  14.8260  14.8260
    16.8893  16.8893  19.5990  19.5990  23.8498  23.8498  30.2151  30.2151
    32.4551  32.4551

          k = 0.7500 0.2500-0.2500 (   298 PWs)   bands (ev):

    10.8397  10.8397  11.8852  11.8852  13.3010  13.3010  14.8260  14.8260
    16.8893  16.8893  19.5990  19.5990  23.8498  23.8498  30.2151  30.2151
    32.4551  32.4551

          k = 1.7500 0.2500-0.2500 (   302 PWs)   bands (ev):

     8.9305   8.9305  12.7054  12.7054  12.9119  12.9119  14.1045  14.1045
    15.2417  15.2417  15.8177  15.8177  29.8118  29.8118  34.7512  34.7512
    38.2229  38.2229

     the Fermi energy is    16.9441 ev

     Writing output data file Pt_pbe.save

                                                                                

     bravais-lattice index     =            2
     lattice parameter (alat)  =       7.5500  a.u.
     unit-cell volume          =     107.5922 (a.u.)^3
     number of atoms/cell      =            1
     number of atomic types    =            1
     kinetic-energy cut-off    =      30.0000  Ry
     charge density cut-off    =     300.0000  Ry
     convergence threshold     =      1.0E-16
     beta                      =       0.7000
     number of iterations used =            4
     Exchange-correlation      =  SLA  PW   PBX  PBC ( 1  4  3  4 0 0)
     Non magnetic calculation with spin-orbit

     celldm(1)=    7.55000  celldm(2)=    0.00000  celldm(3)=    0.00000
     celldm(4)=    0.00000  celldm(5)=    0.00000  celldm(6)=    0.00000

     crystal axes: (cart. coord. in units of alat)
               a(1) = ( -0.5000  0.0000  0.5000 )  
               a(2) = (  0.0000  0.5000  0.5000 )  
               a(3) = ( -0.5000  0.5000  0.0000 )  

     reciprocal axes: (cart. coord. in units 2 pi/alat)
               b(1) = ( -1.0000 -1.0000  1.0000 )  
               b(2) = (  1.0000  1.0000  1.0000 )  
               b(3) = ( -1.0000  1.0000 -1.0000 )  


     Atoms inside the unit cell: 

     Cartesian axes

     site n.  atom      mass           positions (alat units)
        1     Pt 195.0780   tau(    1) = (    0.00000    0.00000    0.00000  )

     Computing dynamical matrix for 
                    q = (   1.0000000   0.0000000   0.0000000 )
 
     17 Sym.Ops. (with q -> -q+G )


     G cutoff =  433.1671  (   4703 G-vectors)     FFT grid: ( 30, 30, 30)
     G cutoff =  173.2668  (   1214 G-vectors)  smooth grid: ( 20, 20, 20)

     number of k points=     6  Methfessel-Paxton smearing, width (Ry)=  0.0200
                       cart. coord. in units 2pi/alat
        k(    1) = (  -0.2500000   0.2500000   0.2500000), wk =   0.2500000
        k(    2) = (   0.7500000   0.2500000   0.2500000), wk =   0.0000000
        k(    3) = (   0.2500000  -0.2500000   0.7500000), wk =   0.5000000
        k(    4) = (   1.2500000  -0.2500000   0.7500000), wk =   0.0000000
        k(    5) = (   0.7500000   0.2500000  -0.2500000), wk =   0.2500000
        k(    6) = (   1.7500000   0.2500000  -0.2500000), wk =   0.0000000

     PseudoPot. # 1 for Pt read from file:
     /home/nvarini/espresso_hdf5/espresso/pseudo/Pt.rel-pbe-n-rrkjus.UPF
     MD5 check sum: f1163e321df7e874ff6c87b26313b9cd
     Pseudo is Ultrasoft + core correction, Zval = 10.0
     Generated by new atomic code, or converted to UPF format
     Using radial grid of 1277 points,  6 beta functions with: 
                l(1) =   2
                l(2) =   2
                l(3) =   2
                l(4) =   2
                l(5) =   1
                l(6) =   1
     Q(r) pseudized with 0 coefficients 


     Mode symmetry, D_4h(4/mmm) point group:


     Atomic displacements:
     There are   2 irreducible representations

     Representation     1      1 modes -A_2u X_4' M_4'  To be done

     Representation     2      2 modes -E_u  X_5' M_5'  To be done



     Alpha used in Ewald sum =   2.8000
     PHONON       :     3.05s CPU         3.11s WALL



     Representation #  1 mode #   1

     Self-consistent Calculation

      iter #   1 total cpu time :     3.4 secs   av.it.:   8.3
      thresh= 1.000E-02 alpha_mix =  0.700 |ddv_scf|^2 =  3.566E-04

      iter #   2 total cpu time :     3.7 secs   av.it.:  11.0
      thresh= 1.888E-03 alpha_mix =  0.700 |ddv_scf|^2 =  3.845E-04

      iter #   3 total cpu time :     4.0 secs   av.it.:  10.0
      thresh= 1.961E-03 alpha_mix =  0.700 |ddv_scf|^2 =  5.501E-08

      iter #   4 total cpu time :     4.3 secs   av.it.:  10.7
      thresh= 2.345E-05 alpha_mix =  0.700 |ddv_scf|^2 =  2.228E-10

      iter #   5 total cpu time :     4.5 secs   av.it.:  10.0
      thresh= 1.493E-06 alpha_mix =  0.700 |ddv_scf|^2 =  1.123E-11

      iter #   6 total cpu time :     4.8 secs   av.it.:   9.7
      thresh= 3.352E-07 alpha_mix =  0.700 |ddv_scf|^2 =  2.192E-14

      iter #   7 total cpu time :     5.1 secs   av.it.:  11.0
      thresh= 1.480E-08 alpha_mix =  0.700 |ddv_scf|^2 =  2.167E-16

      iter #   8 total cpu time :     5.4 secs   av.it.:  10.0
      thresh= 1.472E-09 alpha_mix =  0.700 |ddv_scf|^2 =  6.066E-18

     End of self-consistent calculation

     Convergence has been achieved 


     Representation #  2 modes #   2  3

     Self-consistent Calculation

      iter #   1 total cpu time :     5.9 secs   av.it.:   7.5
      thresh= 1.000E-02 alpha_mix =  0.700 |ddv_scf|^2 =  5.552E-06

      iter #   2 total cpu time :     6.4 secs   av.it.:  12.0
      thresh= 2.356E-04 alpha_mix =  0.700 |ddv_scf|^2 =  7.293E-07

      iter #   3 total cpu time :     6.9 secs   av.it.:  11.7
      thresh= 8.540E-05 alpha_mix =  0.700 |ddv_scf|^2 =  6.696E-09

      iter #   4 total cpu time :     7.4 secs   av.it.:  10.8
      thresh= 8.183E-06 alpha_mix =  0.700 |ddv_scf|^2 =  1.228E-11

      iter #   5 total cpu time :     7.9 secs   av.it.:  11.5
      thresh= 3.504E-07 alpha_mix =  0.700 |ddv_scf|^2 =  1.089E-13

      iter #   6 total cpu time :     8.4 secs   av.it.:  10.2
      thresh= 3.300E-08 alpha_mix =  0.700 |ddv_scf|^2 =  3.461E-15

      iter #   7 total cpu time :     8.9 secs   av.it.:  10.8
      thresh= 5.883E-09 alpha_mix =  0.700 |ddv_scf|^2 =  6.710E-18

     End of self-consistent calculation

     Convergence has been achieved 
 
     Number of q in the star =    3
     List of q in the star:
          1   1.000000000   0.000000000   0.000000000
          2   0.000000000   0.000000000   1.000000000
          3   0.000000000   1.000000000   0.000000000

     Diagonalizing the dynamical matrix

     q = (    1.000000000   0.000000000   0.000000000 ) 

 **************************************************************************
     freq (    1) =       3.476411 [THz] =     115.960581 [cm-1]
     freq (    2) =       3.476411 [THz] =     115.960581 [cm-1]
     freq (    3) =       5.398944 [THz] =     180.089378 [cm-1]
 **************************************************************************

     Mode symmetry, D_4h(4/mmm) point group:

     freq (  1 -  2) =        116.0  [cm-1]   --> E_u  X_5' M_5'     
     freq (  3 -  3) =        180.1  [cm-1]   --> A_2u X_4' M_4'     
 
     init_run     :      0.49s CPU      0.50s WALL (       1 calls)
     electrons    :      0.49s CPU      0.51s WALL (       1 calls)

     Called by init_run:
     wfcinit      :      0.00s CPU      0.00s WALL (       1 calls)
     potinit      :      0.01s CPU      0.01s WALL (       1 calls)

     Called by electrons:
     c_bands      :      0.49s CPU      0.51s WALL (       1 calls)
     v_of_rho     :      0.02s CPU      0.02s WALL (       2 calls)
     newd         :      0.05s CPU      0.06s WALL (       2 calls)

     Called by c_bands:
     init_us_2    :      0.00s CPU      0.00s WALL (      69 calls)
     cegterg      :      0.45s CPU      0.46s WALL (       6 calls)

     Called by sum_band:

     Called by *egterg:
     h_psi        :      2.24s CPU      2.30s WALL (    1010 calls)
     s_psi        :      0.19s CPU      0.18s WALL (    1985 calls)
     g_psi        :      0.00s CPU      0.00s WALL (      89 calls)
     cdiaghg      :      0.11s CPU      0.11s WALL (      95 calls)

     Called by h_psi:
     add_vuspsi   :      0.09s CPU      0.09s WALL (    1010 calls)

     General routines
     calbec       :      0.17s CPU      0.16s WALL (    2138 calls)
     fft          :      0.10s CPU      0.11s WALL (     445 calls)
     ffts         :      0.00s CPU      0.01s WALL (      73 calls)
     fftw         :      1.94s CPU      2.01s WALL (   41720 calls)
     interpolate  :      0.02s CPU      0.02s WALL (      55 calls)
     davcio       :      0.02s CPU      0.03s WALL (     347 calls)
 
     Parallel routines
     fft_scatter  :      0.49s CPU      0.58s WALL (   42238 calls)
 
     PHONON       :     8.72s CPU         8.90s WALL

     INITIALIZATION: 
     phq_setup    :      0.03s CPU      0.03s WALL (       1 calls)
     phq_init     :      1.14s CPU      1.14s WALL (       1 calls)
 
     phq_init     :      1.14s CPU      1.14s WALL (       1 calls)
     set_drhoc    :      0.45s CPU      0.45s WALL (       3 calls)
     init_vloc    :      0.00s CPU      0.00s WALL (       2 calls)
     init_us_1    :      0.78s CPU      0.79s WALL (       2 calls)
     newd         :      0.05s CPU      0.06s WALL (       2 calls)
     dvanqq       :      0.24s CPU      0.24s WALL (       1 calls)
     drho         :      0.35s CPU      0.34s WALL (       1 calls)
 
     DYNAMICAL MATRIX:
     dynmat0      :      0.35s CPU      0.35s WALL (       1 calls)
     phqscf       :      5.66s CPU      5.78s WALL (       1 calls)
     dynmatrix    :      0.01s CPU      0.01s WALL (       1 calls)
 
     phqscf       :      5.66s CPU      5.78s WALL (       1 calls)
     solve_linter :      5.64s CPU      5.76s WALL (       2 calls)
     drhodv       :      0.02s CPU      0.02s WALL (       2 calls)
 
     dynmat0      :      0.35s CPU      0.35s WALL (       1 calls)
     dynmat_us    :      0.03s CPU      0.03s WALL (       1 calls)
     d2ionq       :      0.00s CPU      0.00s WALL (       1 calls)
     dynmatcc     :      0.31s CPU      0.31s WALL (       1 calls)
 
     dynmat_us    :      0.03s CPU      0.03s WALL (       1 calls)
     addusdynmat  :      0.01s CPU      0.01s WALL (       1 calls)
 
     phqscf       :      5.66s CPU      5.78s WALL (       1 calls)
     solve_linter :      5.64s CPU      5.76s WALL (       2 calls)
 
     solve_linter :      5.64s CPU      5.76s WALL (       2 calls)
     dvqpsi_us    :      0.08s CPU      0.08s WALL (       9 calls)
     ortho        :      0.03s CPU      0.03s WALL (      66 calls)
     cgsolve      :      2.31s CPU      2.38s WALL (      66 calls)
     incdrhoscf   :      0.18s CPU      0.18s WALL (      66 calls)
     addusddens   :      1.00s CPU      1.00s WALL (      17 calls)
     vpsifft      :      0.14s CPU      0.14s WALL (      57 calls)
     dv_of_drho   :      0.08s CPU      0.08s WALL (      22 calls)
     mix_pot      :      0.03s CPU      0.04s WALL (      15 calls)
     psymdvscf    :      0.52s CPU      0.52s WALL (      15 calls)
     newdq        :      1.24s CPU      1.25s WALL (      15 calls)
     adddvscf     :      0.03s CPU      0.03s WALL (      57 calls)
     drhodvus     :      0.00s CPU      0.00s WALL (       2 calls)
 
     dvqpsi_us    :      0.08s CPU      0.08s WALL (       9 calls)
     dvqpsi_us_on :      0.04s CPU      0.04s WALL (       9 calls)
 
     cgsolve      :      2.31s CPU      2.38s WALL (      66 calls)
     ch_psi       :      2.26s CPU      2.33s WALL (     909 calls)
 
     ch_psi       :      2.26s CPU      2.33s WALL (     909 calls)
     last         :      0.22s CPU      0.23s WALL (     909 calls)
 
     add_vuspsi   :      0.09s CPU      0.09s WALL (    1010 calls)
 
     incdrhoscf   :      0.18s CPU      0.18s WALL (      66 calls)
 
     drhodvus     :      0.00s CPU      0.00s WALL (       2 calls)
 
      General routines
     calbec       :      0.17s CPU      0.16s WALL (    2138 calls)
     fft          :      0.10s CPU      0.11s WALL (     445 calls)
     ffts         :      0.00s CPU      0.01s WALL (      73 calls)
     fftw         :      1.94s CPU      2.01s WALL (   41720 calls)
     davcio       :      0.02s CPU      0.03s WALL (     347 calls)
     write_rec    :      0.03s CPU      0.04s WALL (      17 calls)
 
 
     PHONON       :     8.72s CPU         8.90s WALL

 
   This run was terminated on:  11:12:30  28Jul2016            

=------------------------------------------------------------------------------=
   JOB DONE.
=------------------------------------------------------------------------------=
