
     Program PWSCF v.5.4.0 (svn rev. 12590M) starts on 21Jul2016 at 15:41: 1 

     This program is part of the open-source Quantum ESPRESSO suite
     for quantum simulation of materials; please cite
         "P. Giannozzi et al., J. Phys.:Condens. Matter 21 395502 (2009);
          URL http://www.quantum-espresso.org", 
     in publications or presentations arising from this work. More details at
     http://www.quantum-espresso.org/quote
 
           HOST :    x86_64-pc-linux-gnu
           ARCH :    x86_64
             CC :    icc
            CPP :    cpp
            F90 :    gfortran
            F77 :    gfortran
         DFLAGS :    -D__GFORTRAN -D__STD_F95 -D__DFTI -D__MPI -D__PARA -D__HDF5
      BLAS LIBS :    -lmkl_gf_lp64  -lmkl_sequential -lmkl_core
    LAPACK LIBS :    
       FFT LIBS :    
      MASS LIBS :    

     Parallel version (MPI), running on     2 processors
     R & G space division:  proc/nbgrp/npool/nimage =       2
     Waiting for input...
     Reading input from standard input
     Message from routine read_cards :
     DEPRECATED: no units specified in CELL_PARAMETERS card

     Current dimensions of program PWSCF are:
     Max number of different atomic species (ntypx) = 10
     Max number of k-points (npk) =  40000
     Max angular momentum in pseudopotentials (lmaxx) =  3

     Subspace diagonalization in iterative solution of the eigenvalue problem:
     a serial algorithm will be used

 
     Parallelization info
     --------------------
     sticks:   dense  smooth     PW     G-vecs:    dense   smooth      PW
     Min         174     174     60                 2079     2079     416
     Max         175     175     61                 2080     2080     417
     Sum         349     349    121                 4159     4159     833
 


     bravais-lattice index     =            0
     lattice parameter (alat)  =       7.0103  a.u.
     unit-cell volume          =     245.3705 (a.u.)^3
     number of atoms/cell      =            2
     number of atomic types    =            1
     number of electrons       =        10.00
     number of Kohn-Sham states=            9
     kinetic-energy cutoff     =      25.0000  Ry
     charge density cutoff     =     100.0000  Ry
     convergence threshold     =      1.0E-07
     mixing beta               =       0.7000
     number of iterations used =            8  plain     mixing
     Exchange-correlation      =  SLA  PZ   NOGX NOGC ( 1  1  0  0 0 0)
     nstep                     =           50


     celldm(1)=   7.010336  celldm(2)=   0.000000  celldm(3)=   0.000000
     celldm(4)=   0.000000  celldm(5)=   0.000000  celldm(6)=   0.000000

     crystal axes: (cart. coord. in units of alat)
               a(1) = (   0.580130   0.000000   0.814524 )  
               a(2) = (  -0.290065   0.502407   0.814524 )  
               a(3) = (  -0.290065  -0.502407   0.814524 )  

     reciprocal axes: (cart. coord. in units 2 pi/alat)
               b(1) = (  1.149169  0.000000  0.409237 )  
               b(2) = ( -0.574584  0.995209  0.409237 )  
               b(3) = ( -0.574584 -0.995209  0.409237 )  


     PseudoPot. # 1 for As read from file:
     /home/nvarini/espresso_hdf5/espresso/pseudo/As.pz-bhs.UPF
     MD5 check sum: 451cd3365afcfc94d28b1934951c34a8
     Pseudo is Norm-conserving, Zval =  5.0
     Generated by new atomic code, or converted to UPF format
     Using radial grid of  525 points,  2 beta functions with: 
                l(1) =   0
                l(2) =   1

     atomic species   valence    mass     pseudopotential
        As             5.00    74.90000     As( 1.00)

     12 Sym. Ops., with inversion, found



   Cartesian axes

     site n.     atom                  positions (alat units)
         1           As  tau(   1) = (   0.0000001   0.0000000   0.7086605  )
         2           As  tau(   2) = (  -0.0000001   0.0000000  -0.7086605  )

     number of k points=    10  Methfessel-Paxton smearing, width (Ry)=  0.0050
                       cart. coord. in units 2pi/alat
        k(    1) = (   0.0000000   0.0000000   0.1534638), wk =   0.0625000
        k(    2) = (  -0.1436461  -0.2488023   0.2557731), wk =   0.1875000
        k(    3) = (   0.2872922   0.4976046  -0.0511547), wk =   0.1875000
        k(    4) = (   0.1436461   0.2488023   0.0511546), wk =   0.1875000
        k(    5) = (  -0.2872922   0.0000000   0.3580823), wk =   0.1875000
        k(    6) = (   0.1436461   0.7464070   0.0511546), wk =   0.3750000
        k(    7) = (   0.0000000   0.4976046   0.1534638), wk =   0.3750000
        k(    8) = (   0.5745844   0.0000000  -0.2557731), wk =   0.1875000
        k(    9) = (   0.0000000   0.0000000   0.4603915), wk =   0.0625000
        k(   10) = (   0.4309383   0.7464070   0.1534638), wk =   0.1875000

     Dense  grid:     4159 G-vectors     FFT dimensions: (  24,  24,  24)

     Largest allocated arrays     est. size (Mb)     dimensions
        Kohn-Sham Wavefunctions         0.04 Mb     (     261,    9)
        NL pseudopotentials             0.03 Mb     (     261,    8)
        Each V/rho on FFT grid          0.11 Mb     (    6912)
        Each G-vector array             0.02 Mb     (    2080)
        G-vector shells                 0.02 Mb     (    2080)
     Largest temporary arrays     est. size (Mb)     dimensions
        Auxiliary wavefunctions         0.14 Mb     (     261,   36)
        Each subspace H/S matrix        0.02 Mb     (      36,   36)
        Each <psi_i|beta_j> matrix      0.00 Mb     (       8,    9)
        Arrays for rho mixing           0.84 Mb     (    6912,    8)

     Initial potential from superposition of free atoms

     starting charge    9.99960, renormalised to   10.00000
     Starting wfc are    8 randomized atomic wfcs +    1 random wfc

     total cpu time spent up to now is        0.1 secs

     per-process dynamical memory:     2.8 Mb

     Self-consistent Calculation

     iteration #  1     ecut=    25.00 Ry     beta=0.70
     Davidson diagonalization with overlap
     ethr =  1.00E-02,  avg # of iterations =  4.3

     Threshold (ethr) on eigenvalues was too large:
     Diagonalizing with lowered threshold

     Davidson diagonalization with overlap
     ethr =  1.54E-04,  avg # of iterations =  1.3

     total cpu time spent up to now is        0.2 secs

     total energy              =     -25.43995533 Ry
     Harris-Foulkes estimate   =     -25.44371111 Ry
     estimated scf accuracy    <       0.01555642 Ry

     iteration #  2     ecut=    25.00 Ry     beta=0.70
     Davidson diagonalization with overlap
     ethr =  1.56E-04,  avg # of iterations =  1.0

     total cpu time spent up to now is        0.3 secs

     total energy              =     -25.44007975 Ry
     Harris-Foulkes estimate   =     -25.44026241 Ry
     estimated scf accuracy    <       0.00088828 Ry

     iteration #  3     ecut=    25.00 Ry     beta=0.70
     Davidson diagonalization with overlap
     ethr =  8.88E-06,  avg # of iterations =  1.6

     total cpu time spent up to now is        0.3 secs

     total energy              =     -25.44011386 Ry
     Harris-Foulkes estimate   =     -25.44011521 Ry
     estimated scf accuracy    <       0.00000510 Ry

     iteration #  4     ecut=    25.00 Ry     beta=0.70
     Davidson diagonalization with overlap
     ethr =  5.10E-08,  avg # of iterations =  3.2

     total cpu time spent up to now is        0.4 secs

     total energy              =     -25.44012212 Ry
     Harris-Foulkes estimate   =     -25.44012250 Ry
     estimated scf accuracy    <       0.00000079 Ry

     iteration #  5     ecut=    25.00 Ry     beta=0.70
     Davidson diagonalization with overlap
     ethr =  7.94E-09,  avg # of iterations =  1.4

     total cpu time spent up to now is        0.4 secs

     End of self-consistent calculation

          k = 0.0000 0.0000 0.1535 (   531 PWs)   bands (ev):

    -6.9960   4.5196   5.9667   5.9667   8.4360  11.0403  11.7601  11.7601
    16.5646

          k =-0.1436-0.2488 0.2558 (   522 PWs)   bands (ev):

    -5.9250   0.3917   5.3512   5.6501   9.2996  10.5303  11.7005  13.5632
    15.7167

          k = 0.2873 0.4976-0.0512 (   520 PWs)   bands (ev):

    -4.3490  -2.4705   4.7883   6.1554   7.8795  10.8148  12.5848  13.8261
    17.7262

          k = 0.1436 0.2488 0.0512 (   525 PWs)   bands (ev):

    -6.3695   1.3042   4.9860   7.1720   8.5435  10.8049  12.4702  13.9612
    15.3511

          k =-0.2873 0.0000 0.3581 (   519 PWs)   bands (ev):

    -5.5427   1.1264   3.5658   4.2977   7.5158  10.4217  13.7076  13.7746
    16.9045

          k = 0.1436 0.7464 0.0512 (   510 PWs)   bands (ev):

    -3.8393  -1.8099   2.3270   4.2466   8.0538  11.6204  13.3234  15.7202
    17.3489

          k = 0.0000 0.4976 0.1535 (   521 PWs)   bands (ev):

    -4.7124  -1.4722   3.0016   6.6926   7.7777  12.3034  13.0675  13.4304
    16.0961

          k = 0.5746 0.0000-0.2558 (   510 PWs)   bands (ev):

    -4.0542  -1.5061   3.7084   3.7296   6.0242  10.0593  15.9112  17.7151
    18.4776

          k = 0.0000 0.0000 0.4604 (   522 PWs)   bands (ev):

    -5.8586   0.8360   5.8840   5.8840   7.4114  10.0627  10.0627  12.1191
    17.3944

          k = 0.4309 0.7464 0.1535 (   520 PWs)   bands (ev):

    -4.8493  -0.0499   2.4338   4.7831   7.5088  11.6828  12.0642  14.4760
    17.7700

     the Fermi energy is    10.0033 ev

!    total energy              =     -25.44012222 Ry
     Harris-Foulkes estimate   =     -25.44012223 Ry
     estimated scf accuracy    <       0.00000002 Ry

     The total energy is the sum of the following terms:

     one-electron contribution =       7.72810239 Ry
     hartree contribution      =       1.22166194 Ry
     xc contribution           =      -6.50440230 Ry
     ewald contribution        =     -27.88552965 Ry
     smearing contrib. (-TS)   =       0.00004540 Ry

     convergence has been achieved in   5 iterations

     Forces acting on atoms (Ry/au):

     atom    1 type  1   force =    -0.00000000    0.00000000   -0.12659946
     atom    2 type  1   force =     0.00000000   -0.00000000    0.12659946

     Total force =     0.179039     Total SCF correction =     0.000028


     entering subroutine stress ...

          total   stress  (Ry/bohr**3)                   (kbar)     P=  217.52
   0.00172377  -0.00000000  -0.00000000        253.58     -0.00     -0.00
   0.00000000   0.00172377   0.00000000          0.00    253.58      0.00
  -0.00000000  -0.00000000   0.00098857         -0.00     -0.00    145.42


     BFGS Geometry Optimization

     number of scf cycles    =   1
     number of bfgs steps    =   0

     enthalpy new            =     -24.6061248128 Ry

     new trust radius        =       0.1887833748 bohr
     new conv_thr            =       0.0000001000 Ry

     new unit-cell volume =    211.67576 a.u.^3 (    31.36711 Ang^3 )

CELL_PARAMETERS (alat=  7.01033623)
   0.555834310   0.000000000   0.765441723
  -0.277916981   0.481366588   0.765441729
  -0.277916981  -0.481366588   0.765441729

ATOMIC_POSITIONS (crystal)
As       0.282619607   0.282619602   0.282619602
As      -0.282619607  -0.282619602  -0.282619602



     Writing output data file pwscf.save
     NEW-OLD atomic charge density approx. for the potential
     extrapolated charge    8.40826, renormalised to   10.00000

     total cpu time spent up to now is        0.6 secs

     per-process dynamical memory:     3.9 Mb

     Self-consistent Calculation

     iteration #  1     ecut=    25.00 Ry     beta=0.70
     Davidson diagonalization with overlap
     ethr =  1.00E-06,  avg # of iterations =  5.1

     total cpu time spent up to now is        0.7 secs

     total energy              =     -25.38370941 Ry
     Harris-Foulkes estimate   =     -24.32079062 Ry
     estimated scf accuracy    <       0.02063949 Ry

     iteration #  2     ecut=    25.00 Ry     beta=0.70
     Davidson diagonalization with overlap
     ethr =  2.06E-04,  avg # of iterations =  2.6

     total cpu time spent up to now is        0.8 secs

     total energy              =     -25.40138733 Ry
     Harris-Foulkes estimate   =     -25.40441278 Ry
     estimated scf accuracy    <       0.00628318 Ry

     iteration #  3     ecut=    25.00 Ry     beta=0.70
     Davidson diagonalization with overlap
     ethr =  6.28E-05,  avg # of iterations =  1.1

     total cpu time spent up to now is        0.8 secs

     total energy              =     -25.40159519 Ry
     Harris-Foulkes estimate   =     -25.40189911 Ry
     estimated scf accuracy    <       0.00065383 Ry

     iteration #  4     ecut=    25.00 Ry     beta=0.70
     Davidson diagonalization with overlap
     ethr =  6.54E-06,  avg # of iterations =  2.0

     total cpu time spent up to now is        0.9 secs

     total energy              =     -25.40163825 Ry
     Harris-Foulkes estimate   =     -25.40166652 Ry
     estimated scf accuracy    <       0.00005043 Ry

     iteration #  5     ecut=    25.00 Ry     beta=0.70
     Davidson diagonalization with overlap
     ethr =  5.04E-07,  avg # of iterations =  2.8

     total cpu time spent up to now is        1.0 secs

     total energy              =     -25.40166291 Ry
     Harris-Foulkes estimate   =     -25.40166365 Ry
     estimated scf accuracy    <       0.00000331 Ry

     iteration #  6     ecut=    25.00 Ry     beta=0.70
     Davidson diagonalization with overlap
     ethr =  3.31E-08,  avg # of iterations =  1.3

     total cpu time spent up to now is        1.0 secs

     total energy              =     -25.40166206 Ry
     Harris-Foulkes estimate   =     -25.40166298 Ry
     estimated scf accuracy    <       0.00000165 Ry

     iteration #  7     ecut=    25.00 Ry     beta=0.70
     Davidson diagonalization with overlap
     ethr =  1.65E-08,  avg # of iterations =  2.0

     total cpu time spent up to now is        1.1 secs

     End of self-consistent calculation

          k = 0.0000 0.0000 0.1633 (   531 PWs)   bands (ev):

    -5.9367   7.0817   8.2032   8.2032  11.2581  13.8350  14.3549  14.3550
    18.4339

          k =-0.1499-0.2597 0.2722 (   522 PWs)   bands (ev):

    -4.6714   2.2296   7.2109   8.1028  11.9027  13.1331  13.4309  16.5292
    18.1830

          k = 0.2998 0.5194-0.0544 (   520 PWs)   bands (ev):

    -2.8547  -0.9761   6.9923   7.9649  10.0196  13.7451  14.3129  16.3159
    20.8094

          k = 0.1499 0.2597 0.0544 (   525 PWs)   bands (ev):

    -5.2654   3.5949   7.0489   9.3439  10.6444  13.7211  15.1490  16.5919
    18.0162

          k =-0.2998 0.0000 0.3810 (   519 PWs)   bands (ev):

    -4.1322   3.3399   5.1342   6.0875   9.0187  12.9443  16.5258  17.0166
    19.1508

          k = 0.1499 0.7790 0.0544 (   510 PWs)   bands (ev):

    -2.0535  -0.0682   3.6590   5.6372  10.0896  14.2403  15.7481  18.9064
    20.2715

          k = 0.0000 0.5194 0.1633 (   521 PWs)   bands (ev):

    -3.3505   0.4109   4.7586   8.2224  10.1013  14.6106  15.9234  16.2643
    18.6227

          k = 0.5997 0.0000-0.2722 (   510 PWs)   bands (ev):

    -2.4288   0.5228   4.8732   5.4349   7.5395  12.5225  18.7269  20.6442
    21.7479

          k = 0.0000 0.0000 0.4899 (   522 PWs)   bands (ev):

    -4.3331   1.9783   8.1315   8.1315  10.5522  11.9552  11.9553  14.3777
    20.4088

          k = 0.4498 0.7790 0.1633 (   520 PWs)   bands (ev):

    -3.0367   1.3418   3.7838   6.7673   9.3544  14.2225  14.7923  17.7407
    20.1086

     the Fermi energy is    11.9331 ev

!    total energy              =     -25.40166230 Ry
     Harris-Foulkes estimate   =     -25.40166230 Ry
     estimated scf accuracy    <          3.5E-09 Ry

     The total energy is the sum of the following terms:

     one-electron contribution =       9.92261541 Ry
     hartree contribution      =       0.89911417 Ry
     xc contribution           =      -6.68611999 Ry
     ewald contribution        =     -29.53714435 Ry
     smearing contrib. (-TS)   =      -0.00012754 Ry

     convergence has been achieved in   7 iterations

     Forces acting on atoms (Ry/au):

     atom    1 type  1   force =    -0.00000000    0.00000000   -0.13944773
     atom    2 type  1   force =     0.00000000   -0.00000000    0.13944773

     Total force =     0.197209     Total SCF correction =     0.000043


     entering subroutine stress ...

          total   stress  (Ry/bohr**3)                   (kbar)     P=  444.95
   0.00333259  -0.00000000  -0.00000000        490.24     -0.00     -0.00
   0.00000000   0.00333259   0.00000000          0.00    490.24      0.00
  -0.00000000   0.00000000   0.00240897         -0.00      0.00    354.37


     number of scf cycles    =   2
     number of bfgs steps    =   1

     enthalpy old            =     -24.6061248128 Ry
     enthalpy new            =     -24.6821908767 Ry

     CASE: enthalpy_new < enthalpy_old

     new trust radius        =       0.3019772937 bohr
     new conv_thr            =       0.0000001000 Ry

     new unit-cell volume =    183.03303 a.u.^3 (    27.12270 Ang^3 )

CELL_PARAMETERS (alat=  7.01033623)
   0.539853721   0.000000000   0.701631291
  -0.269926723   0.467526991   0.701631318
  -0.269926723  -0.467526991   0.701631318

ATOMIC_POSITIONS (crystal)
As       0.263860945   0.263860927   0.263860927
As      -0.263860945  -0.263860927  -0.263860927



     Writing output data file pwscf.save
     NEW-OLD atomic charge density approx. for the potential
     extrapolated charge    8.43517, renormalised to   10.00000

     total cpu time spent up to now is        1.2 secs

     per-process dynamical memory:     3.9 Mb

     Self-consistent Calculation

     iteration #  1     ecut=    25.00 Ry     beta=0.70
     Davidson diagonalization with overlap
     ethr =  1.00E-06,  avg # of iterations =  7.1

     total cpu time spent up to now is        1.3 secs

     total energy              =     -25.34462608 Ry
     Harris-Foulkes estimate   =     -24.15518311 Ry
     estimated scf accuracy    <       0.01769169 Ry

     iteration #  2     ecut=    25.00 Ry     beta=0.70
     Davidson diagonalization with overlap
     ethr =  1.77E-04,  avg # of iterations =  2.1

     total cpu time spent up to now is        1.4 secs

     total energy              =     -25.35391976 Ry
     Harris-Foulkes estimate   =     -25.35521141 Ry
     estimated scf accuracy    <       0.00290904 Ry

     iteration #  3     ecut=    25.00 Ry     beta=0.70
     Davidson diagonalization with overlap
     ethr =  2.91E-05,  avg # of iterations =  1.1

     total cpu time spent up to now is        1.5 secs

     total energy              =     -25.35400690 Ry
     Harris-Foulkes estimate   =     -25.35412827 Ry
     estimated scf accuracy    <       0.00027641 Ry

     iteration #  4     ecut=    25.00 Ry     beta=0.70
     Davidson diagonalization with overlap
     ethr =  2.76E-06,  avg # of iterations =  2.1

     total cpu time spent up to now is        1.5 secs

     total energy              =     -25.35404710 Ry
     Harris-Foulkes estimate   =     -25.35405399 Ry
     estimated scf accuracy    <       0.00001379 Ry

     iteration #  5     ecut=    25.00 Ry     beta=0.70
     Davidson diagonalization with overlap
     ethr =  1.38E-07,  avg # of iterations =  1.7

     total cpu time spent up to now is        1.6 secs

     total energy              =     -25.35404811 Ry
     Harris-Foulkes estimate   =     -25.35404853 Ry
     estimated scf accuracy    <       0.00000073 Ry

     iteration #  6     ecut=    25.00 Ry     beta=0.70
     Davidson diagonalization with overlap
     ethr =  7.33E-09,  avg # of iterations =  2.5

     total cpu time spent up to now is        1.6 secs

     End of self-consistent calculation

          k = 0.0000 0.0000 0.1782 (   531 PWs)   bands (ev):

    -4.6205   9.9126  10.7891  10.7891  14.3255  17.6817  17.6817  17.9912
    19.7716

          k =-0.1544-0.2674 0.2969 (   522 PWs)   bands (ev):

    -3.1157   4.1035   9.8092  11.8603  14.1839  14.3307  16.3500  19.7371
    21.1374

          k = 0.3087 0.5347-0.0594 (   520 PWs)   bands (ev):

    -1.0934   0.6900   9.9550  10.4615  11.9453  15.7402  17.5257  19.6590
    24.8247

          k = 0.1544 0.2674 0.0594 (   525 PWs)   bands (ev):

    -3.9458   6.2431   9.4929  11.3902  13.3914  17.6838  18.5317  19.3202
    20.5552

          k =-0.3087 0.0000 0.4157 (   519 PWs)   bands (ev):

    -2.3094   5.6935   7.7049   8.0170   9.9729  16.1619  19.4720  20.3832
    20.8735

          k = 0.1544 0.8021 0.0594 (   510 PWs)   bands (ev):

     0.3805   1.7730   5.1132   7.3127  12.5986  16.6470  18.2783  23.1596
    23.6093

          k = 0.0000 0.5347 0.1782 (   521 PWs)   bands (ev):

    -1.7598   2.5260   7.2644   9.5065  13.4608  16.6331  19.1892  19.8718
    21.3138

          k = 0.6175 0.0000-0.2969 (   510 PWs)   bands (ev):

    -0.4672   3.6384   5.4659   7.3446   9.0994  15.9645  21.7300  22.8442
    25.5617

          k = 0.0000 0.0000 0.5345 (   522 PWs)   bands (ev):

    -2.1710   3.2605  10.8671  10.8671  13.5264  13.5264  13.8805  15.9384
    24.4486

          k = 0.4631 0.8021 0.1782 (   520 PWs)   bands (ev):

    -0.1117   2.1284   5.6223   9.0777  10.9316  16.1662  18.1827  21.5570
    22.8826

     the Fermi energy is    14.1987 ev

!    total energy              =     -25.35404830 Ry
     Harris-Foulkes estimate   =     -25.35404831 Ry
     estimated scf accuracy    <          6.2E-09 Ry

     The total energy is the sum of the following terms:

     one-electron contribution =      12.37616070 Ry
     hartree contribution      =       0.55960711 Ry
     xc contribution           =      -6.86700551 Ry
     ewald contribution        =     -31.42272478 Ry
     smearing contrib. (-TS)   =      -0.00008582 Ry

     convergence has been achieved in   6 iterations

     Forces acting on atoms (Ry/au):

     atom    1 type  1   force =    -0.00000000    0.00000000   -0.06408090
     atom    2 type  1   force =     0.00000000    0.00000000    0.06408090

     Total force =     0.090624     Total SCF correction =     0.000068


     entering subroutine stress ...

          total   stress  (Ry/bohr**3)                   (kbar)     P=  681.16
   0.00460009   0.00000000  -0.00000000        676.70      0.00     -0.00
  -0.00000000   0.00460009   0.00000000         -0.00    676.70      0.00
  -0.00000000  -0.00000000   0.00469115         -0.00     -0.00    690.09


     number of scf cycles    =   3
     number of bfgs steps    =   2

     enthalpy old            =     -24.6821908767 Ry
     enthalpy new            =     -24.7319315650 Ry

     CASE: enthalpy_new < enthalpy_old

     new trust radius        =       0.0715262661 bohr
     new conv_thr            =       0.0000001000 Ry

     new unit-cell volume =    190.16915 a.u.^3 (    28.18016 Ang^3 )

CELL_PARAMETERS (alat=  7.01033623)
   0.546565633   0.000000000   0.711192373
  -0.273282688   0.473339677   0.711192408
  -0.273282688  -0.473339677   0.711192408

ATOMIC_POSITIONS (crystal)
As       0.259013685   0.259013664   0.259013664
As      -0.259013685  -0.259013664  -0.259013664



     Writing output data file pwscf.save
     NEW-OLD atomic charge density approx. for the potential
     extrapolated charge   10.37524, renormalised to   10.00000

     total cpu time spent up to now is        1.8 secs

     per-process dynamical memory:     3.9 Mb

     Self-consistent Calculation

     iteration #  1     ecut=    25.00 Ry     beta=0.70
     Davidson diagonalization with overlap
     ethr =  1.00E-06,  avg # of iterations =  6.6

     total cpu time spent up to now is        1.9 secs

     total energy              =     -25.38978208 Ry
     Harris-Foulkes estimate   =     -25.68126459 Ry
     estimated scf accuracy    <       0.00086565 Ry

     iteration #  2     ecut=    25.00 Ry     beta=0.70
     Davidson diagonalization with overlap
     ethr =  8.66E-06,  avg # of iterations =  2.0

     total cpu time spent up to now is        2.0 secs

     total energy              =     -25.39023583 Ry
     Harris-Foulkes estimate   =     -25.39031851 Ry
     estimated scf accuracy    <       0.00017480 Ry

     iteration #  3     ecut=    25.00 Ry     beta=0.70
     Davidson diagonalization with overlap
     ethr =  1.75E-06,  avg # of iterations =  1.2

     total cpu time spent up to now is        2.0 secs

     total energy              =     -25.39025113 Ry
     Harris-Foulkes estimate   =     -25.39025809 Ry
     estimated scf accuracy    <       0.00001724 Ry

     iteration #  4     ecut=    25.00 Ry     beta=0.70
     Davidson diagonalization with overlap
     ethr =  1.72E-07,  avg # of iterations =  1.2

     total cpu time spent up to now is        2.1 secs

     total energy              =     -25.39025276 Ry
     Harris-Foulkes estimate   =     -25.39025310 Ry
     estimated scf accuracy    <       0.00000077 Ry

     iteration #  5     ecut=    25.00 Ry     beta=0.70
     Davidson diagonalization with overlap
     ethr =  7.66E-09,  avg # of iterations =  3.0

     total cpu time spent up to now is        2.1 secs

     End of self-consistent calculation

          k = 0.0000 0.0000 0.1758 (   531 PWs)   bands (ev):

    -4.8196   9.0295  10.2833  10.2833  13.3629  17.0777  17.0778  17.4619
    18.9631

          k =-0.1525-0.2641 0.2929 (   522 PWs)   bands (ev):

    -3.3505   3.6002   9.2269  11.6233  13.1496  13.5912  15.4245  19.1739
    20.0849

          k = 0.3049 0.5282-0.0586 (   520 PWs)   bands (ev):

    -1.3710   0.3039   9.5727   9.9080  11.2119  14.8605  16.7333  18.6008
    23.9922

          k = 0.1525 0.2641 0.0586 (   525 PWs)   bands (ev):

    -4.1628   5.6774   9.0498  10.6817  12.7385  16.7396  17.9222  18.4118
    19.3749

          k =-0.3049 0.0000 0.4101 (   519 PWs)   bands (ev):

    -2.5648   4.9817   7.4065   7.6121   9.1986  15.7760  18.6850  19.3940
    19.7777

          k = 0.1525 0.7922 0.0586 (   510 PWs)   bands (ev):

     0.0488   1.3382   4.7639   6.7972  11.8957  15.8353  17.7092  22.2407
    22.5663

          k = 0.0000 0.5282 0.1758 (   521 PWs)   bands (ev):

    -2.0357   2.0868   6.9291   8.8409  12.8265  15.6359  18.5853  18.9900
    20.3179

          k = 0.6099 0.0000-0.2929 (   510 PWs)   bands (ev):

    -0.8094   3.4113   4.7274   6.9660   8.4736  15.5450  20.7292  21.5692
    24.3837

          k = 0.0000 0.0000 0.5273 (   522 PWs)   bands (ev):

    -2.4033   2.6570  10.4492  10.4492  12.8314  12.8314  13.2318  14.9817
    23.5667

          k = 0.4574 0.7922 0.1758 (   520 PWs)   bands (ev):

    -0.3052   1.4324   5.3213   8.6728  10.2601  15.3865  17.3845  20.6462
    22.2409

     the Fermi energy is    13.1971 ev

!    total energy              =     -25.39025315 Ry
     Harris-Foulkes estimate   =     -25.39025319 Ry
     estimated scf accuracy    <       0.00000008 Ry

     The total energy is the sum of the following terms:

     one-electron contribution =      11.89669308 Ry
     hartree contribution      =       0.57913752 Ry
     xc contribution           =      -6.79961314 Ry
     ewald contribution        =     -31.06645354 Ry
     smearing contrib. (-TS)   =      -0.00001707 Ry

     convergence has been achieved in   5 iterations

     Forces acting on atoms (Ry/au):

     atom    1 type  1   force =    -0.00000000   -0.00000000   -0.04260648
     atom    2 type  1   force =     0.00000000    0.00000000    0.04260648

     Total force =     0.060255     Total SCF correction =     0.000072


     entering subroutine stress ...

          total   stress  (Ry/bohr**3)                   (kbar)     P=  525.69
   0.00338922  -0.00000000  -0.00000000        498.57     -0.00     -0.00
  -0.00000000   0.00338922   0.00000000         -0.00    498.57      0.00
  -0.00000000   0.00000000   0.00394227         -0.00      0.00    579.93


     number of scf cycles    =   4
     number of bfgs steps    =   3

     enthalpy old            =     -24.7319315650 Ry
     enthalpy new            =     -24.7438812303 Ry

     CASE: enthalpy_new < enthalpy_old

     new trust radius        =       0.1595020906 bohr
     new conv_thr            =       0.0000001000 Ry

     new unit-cell volume =    191.29672 a.u.^3 (    28.34725 Ang^3 )

CELL_PARAMETERS (alat=  7.01033623)
   0.545419617   0.000000000   0.718418753
  -0.272709705   0.472347196   0.718418804
  -0.272709705  -0.472347196   0.718418804

ATOMIC_POSITIONS (crystal)
As       0.248349713   0.248349686   0.248349686
As      -0.248349713  -0.248349686  -0.248349686



     Writing output data file pwscf.save
     NEW-OLD atomic charge density approx. for the potential
     extrapolated charge   10.05894, renormalised to   10.00000

     total cpu time spent up to now is        2.3 secs

     per-process dynamical memory:     3.9 Mb

     Self-consistent Calculation

     iteration #  1     ecut=    25.00 Ry     beta=0.70
     Davidson diagonalization with overlap
     ethr =  1.00E-06,  avg # of iterations =  8.2

     total cpu time spent up to now is        2.4 secs

     total energy              =     -25.40056201 Ry
     Harris-Foulkes estimate   =     -25.44621142 Ry
     estimated scf accuracy    <       0.00123946 Ry

     iteration #  2     ecut=    25.00 Ry     beta=0.70
     Davidson diagonalization with overlap
     ethr =  1.24E-05,  avg # of iterations =  1.0

     total cpu time spent up to now is        2.5 secs

     total energy              =     -25.40056426 Ry
     Harris-Foulkes estimate   =     -25.40057790 Ry
     estimated scf accuracy    <       0.00009332 Ry

     iteration #  3     ecut=    25.00 Ry     beta=0.70
     Davidson diagonalization with overlap
     ethr =  9.33E-07,  avg # of iterations =  1.0

     total cpu time spent up to now is        2.5 secs

     End of self-consistent calculation

          k = 0.0000 0.0000 0.1740 (   531 PWs)   bands (ev):

    -4.8318   8.7467  10.3307  10.3307  13.2308  17.0756  17.0756  17.7074
    18.7938

          k =-0.1528-0.2646 0.2900 (   522 PWs)   bands (ev):

    -3.3640   3.5636   9.0036  12.1625  12.4610  13.5142  15.3437  19.3071
    19.7053

          k = 0.3056 0.5293-0.0580 (   520 PWs)   bands (ev):

    -1.3478   0.2518   9.6438   9.7348  11.0826  14.5837  16.6509  18.1935
    23.6364

          k = 0.1528 0.2646 0.0580 (   525 PWs)   bands (ev):

    -4.1675   5.6543   9.0903  10.5007  12.5991  16.5052  18.1077  18.1542
    18.7751

          k =-0.3056 0.0000 0.4060 (   519 PWs)   bands (ev):

    -2.5854   4.7716   7.5482   7.6662   8.8891  15.8390  18.6436  19.3144
    19.6549

          k = 0.1528 0.7939 0.0580 (   510 PWs)   bands (ev):

     0.0526   1.3046   4.7338   6.6133  11.7699  15.7595  17.7052  22.0361
    22.5998

          k = 0.0000 0.5293 0.1740 (   521 PWs)   bands (ev):

    -2.0354   2.0718   6.9590   8.6050  12.7336  15.2402  18.4936  18.9906
    20.1223

          k = 0.6112 0.0000-0.2900 (   510 PWs)   bands (ev):

    -0.8217   3.6612   4.2756   7.0151   8.3195  15.4965  20.5150  21.2609
    24.2175

          k = 0.0000 0.0000 0.5220 (   522 PWs)   bands (ev):

    -2.4215   2.3810  10.5763  10.5763  12.7341  12.7341  13.4276  14.8290
    23.4482

          k = 0.4584 0.7939 0.1740 (   520 PWs)   bands (ev):

    -0.1899   1.0667   5.3563   8.7329  10.2030  15.3111  17.4883  20.5959
    22.2534

     the Fermi energy is    12.7910 ev

!    total energy              =     -25.40056608 Ry
     Harris-Foulkes estimate   =     -25.40056607 Ry
     estimated scf accuracy    <       0.00000005 Ry

     The total energy is the sum of the following terms:

     one-electron contribution =      11.84365949 Ry
     hartree contribution      =       0.57406181 Ry
     xc contribution           =      -6.78689008 Ry
     ewald contribution        =     -31.03147026 Ry
     smearing contrib. (-TS)   =       0.00007297 Ry

     convergence has been achieved in   3 iterations

     Forces acting on atoms (Ry/au):

     atom    1 type  1   force =     0.00000000    0.00000000    0.00677778
     atom    2 type  1   force =    -0.00000000    0.00000000   -0.00677778

     Total force =     0.009585     Total SCF correction =     0.000014


     entering subroutine stress ...

          total   stress  (Ry/bohr**3)                   (kbar)     P=  493.66
   0.00317019  -0.00000000  -0.00000000        466.35     -0.00     -0.00
  -0.00000000   0.00317019   0.00000000         -0.00    466.35      0.00
  -0.00000000   0.00000000   0.00372703         -0.00      0.00    548.27


     number of scf cycles    =   5
     number of bfgs steps    =   4

     enthalpy old            =     -24.7438812303 Ry
     enthalpy new            =     -24.7503616342 Ry

     CASE: enthalpy_new < enthalpy_old

     new trust radius        =       0.0300979594 bohr
     new conv_thr            =       0.0000000678 Ry

     new unit-cell volume =    192.14584 a.u.^3 (    28.47308 Ang^3 )

CELL_PARAMETERS (alat=  7.01033623)
   0.543678990   0.000000000   0.726235588
  -0.271839393   0.470839769   0.726235639
  -0.271839393  -0.470839769   0.726235639

ATOMIC_POSITIONS (crystal)
As       0.249400264   0.249400237   0.249400237
As      -0.249400264  -0.249400237  -0.249400237



     Writing output data file pwscf.save
     NEW-OLD atomic charge density approx. for the potential
     extrapolated charge   10.04419, renormalised to   10.00000

     total cpu time spent up to now is        2.6 secs

     per-process dynamical memory:     3.9 Mb

     Self-consistent Calculation

     iteration #  1     ecut=    25.00 Ry     beta=0.70
     Davidson diagonalization with overlap
     ethr =  1.00E-06,  avg # of iterations =  4.3

     total cpu time spent up to now is        2.7 secs

     total energy              =     -25.40449847 Ry
     Harris-Foulkes estimate   =     -25.43849196 Ry
     estimated scf accuracy    <       0.00001714 Ry

     iteration #  2     ecut=    25.00 Ry     beta=0.70
     Davidson diagonalization with overlap
     ethr =  1.71E-07,  avg # of iterations =  2.0

     total cpu time spent up to now is        2.8 secs

     total energy              =     -25.40450248 Ry
     Harris-Foulkes estimate   =     -25.40450307 Ry
     estimated scf accuracy    <       0.00000219 Ry

     iteration #  3     ecut=    25.00 Ry     beta=0.70
     Davidson diagonalization with overlap
     ethr =  2.19E-08,  avg # of iterations =  1.1

     total cpu time spent up to now is        2.8 secs

     total energy              =     -25.40450255 Ry
     Harris-Foulkes estimate   =     -25.40450256 Ry
     estimated scf accuracy    <       0.00000008 Ry

     iteration #  4     ecut=    25.00 Ry     beta=0.70
     Davidson diagonalization with overlap
     ethr =  7.72E-10,  avg # of iterations =  2.4

     total cpu time spent up to now is        2.9 secs

     End of self-consistent calculation

          k = 0.0000 0.0000 0.1721 (   531 PWs)   bands (ev):

    -4.8665   8.5287  10.3517  10.3517  13.1614  16.9943  16.9943  17.6986
    18.7884

          k =-0.1533-0.2655 0.2869 (   522 PWs)   bands (ev):

    -3.4047   3.5451   8.7874  12.2033  12.3320  13.4879  15.2898  19.3429
    19.4698

          k = 0.3066 0.5310-0.0574 (   520 PWs)   bands (ev):

    -1.3585   0.2084   9.5427   9.6236  11.0487  14.4663  16.5317  17.8814
    23.2309

          k = 0.1533 0.2655 0.0574 (   525 PWs)   bands (ev):

    -4.1916   5.6199   9.0985  10.3781  12.4707  16.3517  17.8869  17.9835
    18.6263

          k =-0.3066 0.0000 0.4016 (   519 PWs)   bands (ev):

    -2.6430   4.6174   7.5250   7.7076   8.8085  15.7666  18.6249  19.3302
    19.6838

          k = 0.1533 0.7964 0.0574 (   510 PWs)   bands (ev):

    -0.0121   1.2866   4.7113   6.4741  11.6641  15.7435  17.7004  21.8636
    22.5462

          k = 0.0000 0.5310 0.1721 (   521 PWs)   bands (ev):

    -2.0563   2.0481   6.9015   8.4984  12.5668  15.0228  18.3780  18.9656
    20.0423

          k = 0.6131 0.0000-0.2869 (   510 PWs)   bands (ev):

    -0.8592   3.5860   4.1842   7.0471   8.2322  15.3378  20.3741  21.1693
    24.0936

          k = 0.0000 0.0000 0.5164 (   522 PWs)   bands (ev):

    -2.5055   2.2000  10.6229  10.6229  12.7423  12.7423  13.5066  14.8883
    23.2913

          k = 0.4598 0.7964 0.1721 (   520 PWs)   bands (ev):

    -0.2878   0.9404   5.3517   8.7561  10.2229  15.3160  17.5645  20.6014
    22.0305

     the Fermi energy is    12.7996 ev

!    total energy              =     -25.40450256 Ry
     Harris-Foulkes estimate   =     -25.40450256 Ry
     estimated scf accuracy    <          2.8E-09 Ry

     The total energy is the sum of the following terms:

     one-electron contribution =      11.77804531 Ry
     hartree contribution      =       0.58018344 Ry
     xc contribution           =      -6.78036326 Ry
     ewald contribution        =     -30.98238620 Ry
     smearing contrib. (-TS)   =       0.00001816 Ry

     convergence has been achieved in   4 iterations

     Forces acting on atoms (Ry/au):

     atom    1 type  1   force =     0.00000000    0.00000000    0.00256193
     atom    2 type  1   force =    -0.00000000    0.00000000   -0.00256193

     Total force =     0.003623     Total SCF correction =     0.000003


     entering subroutine stress ...

          total   stress  (Ry/bohr**3)                   (kbar)     P=  481.28
   0.00311916   0.00000000  -0.00000000        458.84      0.00     -0.00
  -0.00000000   0.00311916   0.00000000         -0.00    458.84      0.00
  -0.00000000   0.00000000   0.00357662         -0.00      0.00    526.14


     number of scf cycles    =   6
     number of bfgs steps    =   5

     enthalpy old            =     -24.7503616342 Ry
     enthalpy new            =     -24.7514120191 Ry

     CASE: enthalpy_new < enthalpy_old

     new trust radius        =       0.0447600099 bohr
     new conv_thr            =       0.0000000256 Ry

     new unit-cell volume =    192.25512 a.u.^3 (    28.48927 Ang^3 )

CELL_PARAMETERS (alat=  7.01033623)
   0.539495870   0.000000000   0.737960841
  -0.269747839   0.467217080   0.737960893
  -0.269747839  -0.467217080   0.737960893

ATOMIC_POSITIONS (crystal)
As       0.250171503   0.250171477   0.250171477
As      -0.250171503  -0.250171477  -0.250171477



     Writing output data file pwscf.save
     NEW-OLD atomic charge density approx. for the potential
     extrapolated charge   10.00568, renormalised to   10.00000

     total cpu time spent up to now is        3.0 secs

     per-process dynamical memory:     4.0 Mb

     Self-consistent Calculation

     iteration #  1     ecut=    25.00 Ry     beta=0.70
     Davidson diagonalization with overlap
     ethr =  1.00E-06,  avg # of iterations =  4.2

     total cpu time spent up to now is        3.1 secs

     total energy              =     -25.40597177 Ry
     Harris-Foulkes estimate   =     -25.41033826 Ry
     estimated scf accuracy    <       0.00001124 Ry

     iteration #  2     ecut=    25.00 Ry     beta=0.70
     Davidson diagonalization with overlap
     ethr =  1.12E-07,  avg # of iterations =  1.0

     total cpu time spent up to now is        3.2 secs

     total energy              =     -25.40597199 Ry
     Harris-Foulkes estimate   =     -25.40597196 Ry
     estimated scf accuracy    <       0.00000094 Ry

     iteration #  3     ecut=    25.00 Ry     beta=0.70
     Davidson diagonalization with overlap
     ethr =  9.42E-09,  avg # of iterations =  1.0

     total cpu time spent up to now is        3.2 secs

     End of self-consistent calculation

          k = 0.0000 0.0000 0.1694 (   531 PWs)   bands (ev):

    -4.8827   8.2824  10.4973  10.4973  13.2209  16.9955  16.9955  17.8265
    18.9036

          k =-0.1545-0.2675 0.2823 (   522 PWs)   bands (ev):

    -3.4228   3.6055   8.5290  12.2881  12.3369  13.5756  15.3556  19.2394
    19.5403

          k = 0.3089 0.5351-0.0565 (   520 PWs)   bands (ev):

    -1.3155   0.2101   9.3241   9.6855  11.1080  14.4064  16.4870  17.5159
    22.7078

          k = 0.1545 0.2675 0.0565 (   525 PWs)   bands (ev):

    -4.1863   5.6767   9.2111  10.2674  12.3755  16.2371  17.6072  17.8516
    18.5779

          k =-0.3089 0.0000 0.3952 (   519 PWs)   bands (ev):

    -2.6843   4.4648   7.5659   7.8650   8.8002  15.7442  18.7407  19.5235
    19.9121

          k = 0.1545 0.8026 0.0565 (   510 PWs)   bands (ev):

    -0.0448   1.3387   4.7415   6.3290  11.6043  15.8497  17.8183  21.7248
    22.6235

          k = 0.0000 0.5351 0.1694 (   521 PWs)   bands (ev):

    -2.0331   2.0969   6.8840   8.4242  12.3910  14.8021  18.3335  19.0720
    20.0823

          k = 0.6179 0.0000-0.2823 (   510 PWs)   bands (ev):

    -0.8505   3.5383   4.1258   7.1839   8.1831  15.1806  20.2919  21.1870
    24.0479

          k = 0.0000 0.0000 0.5082 (   522 PWs)   bands (ev):

    -2.5921   1.9894  10.8026  10.8026  12.8770  12.8770  13.7794  15.1460
    23.1867

          k = 0.4634 0.8026 0.1694 (   520 PWs)   bands (ev):

    -0.3924   0.8260   5.4166   8.8866  10.3714  15.4565  17.8496  20.7274
    21.8374

     the Fermi energy is    12.9343 ev

!    total energy              =     -25.40597201 Ry
     Harris-Foulkes estimate   =     -25.40597201 Ry
     estimated scf accuracy    <          8.6E-10 Ry

     The total energy is the sum of the following terms:

     one-electron contribution =      11.76266810 Ry
     hartree contribution      =       0.58316703 Ry
     xc contribution           =      -6.78029363 Ry
     ewald contribution        =     -30.97153162 Ry
     smearing contrib. (-TS)   =       0.00001812 Ry

     convergence has been achieved in   3 iterations

     Forces acting on atoms (Ry/au):

     atom    1 type  1   force =    -0.00000000    0.00000000   -0.00069181
     atom    2 type  1   force =     0.00000000    0.00000000    0.00069181

     Total force =     0.000978     Total SCF correction =     0.000001


     entering subroutine stress ...

          total   stress  (Ry/bohr**3)                   (kbar)     P=  478.86
   0.00317186  -0.00000000  -0.00000000        466.60     -0.00     -0.00
  -0.00000000   0.00317186   0.00000000         -0.00    466.60      0.00
  -0.00000000   0.00000000   0.00342197         -0.00      0.00    503.39


     number of scf cycles    =   7
     number of bfgs steps    =   6

     enthalpy old            =     -24.7514120191 Ry
     enthalpy new            =     -24.7525100157 Ry

     CASE: enthalpy_new < enthalpy_old

     new trust radius        =       0.0461284729 bohr
     new conv_thr            =       0.0000000069 Ry

     new unit-cell volume =    191.27615 a.u.^3 (    28.34420 Ang^3 )

CELL_PARAMETERS (alat=  7.01033623)
   0.533700027   0.000000000   0.750236176
  -0.266849927   0.462197732   0.750236233
  -0.266849927  -0.462197732   0.750236233

ATOMIC_POSITIONS (crystal)
As       0.250364148   0.250364122   0.250364122
As      -0.250364148  -0.250364122  -0.250364122



     Writing output data file pwscf.save
     NEW-OLD atomic charge density approx. for the potential
     extrapolated charge    9.94882, renormalised to   10.00000

     total cpu time spent up to now is        3.4 secs

     per-process dynamical memory:     4.0 Mb

     Self-consistent Calculation

     iteration #  1     ecut=    25.00 Ry     beta=0.70
     Davidson diagonalization with overlap
     ethr =  1.00E-06,  avg # of iterations =  4.9

     Threshold (ethr) on eigenvalues was too large:
     Diagonalizing with lowered threshold

     Davidson diagonalization with overlap
     ethr =  6.57E-08,  avg # of iterations =  1.0

     total cpu time spent up to now is        3.5 secs

     total energy              =     -25.40308117 Ry
     Harris-Foulkes estimate   =     -25.36370026 Ry
     estimated scf accuracy    <       0.00000659 Ry

     iteration #  2     ecut=    25.00 Ry     beta=0.70
     Davidson diagonalization with overlap
     ethr =  6.59E-08,  avg # of iterations =  2.3

     total cpu time spent up to now is        3.6 secs

     total energy              =     -25.40308619 Ry
     Harris-Foulkes estimate   =     -25.40308668 Ry
     estimated scf accuracy    <       0.00000194 Ry

     iteration #  3     ecut=    25.00 Ry     beta=0.70
     Davidson diagonalization with overlap
     ethr =  1.94E-08,  avg # of iterations =  1.0

     total cpu time spent up to now is        3.6 secs

     total energy              =     -25.40308619 Ry
     Harris-Foulkes estimate   =     -25.40308625 Ry
     estimated scf accuracy    <       0.00000026 Ry

     iteration #  4     ecut=    25.00 Ry     beta=0.70
     Davidson diagonalization with overlap
     ethr =  2.60E-09,  avg # of iterations =  1.9

     total cpu time spent up to now is        3.7 secs

     total energy              =     -25.40308622 Ry
     Harris-Foulkes estimate   =     -25.40308622 Ry
     estimated scf accuracy    <          7.3E-09 Ry

     iteration #  5     ecut=    25.00 Ry     beta=0.70
     Davidson diagonalization with overlap
     ethr =  7.29E-11,  avg # of iterations =  2.5

     total cpu time spent up to now is        3.8 secs

     End of self-consistent calculation

          k = 0.0000 0.0000 0.1666 (   531 PWs)   bands (ev):

    -4.8637   8.0799  10.7661  10.7661  13.4440  17.1225  17.1225  18.1097
    18.8113

          k =-0.1561-0.2704 0.2777 (   522 PWs)   bands (ev):

    -3.3986   3.7512   8.3248  12.4349  12.5024  13.7900  15.5513  19.1080
    19.9051

          k = 0.3123 0.5409-0.0555 (   520 PWs)   bands (ev):

    -1.2106   0.2777   9.1639   9.8464  11.2698  14.4525  16.5695  17.2221
    22.2439

          k = 0.1561 0.2704 0.0555 (   525 PWs)   bands (ev):

    -4.1394   5.8428   9.4311  10.2058  12.3718  16.1935  17.3910  17.8331
    18.6685

          k =-0.3123 0.0000 0.3888 (   519 PWs)   bands (ev):

    -2.6816   4.3686   7.6916   8.1261   8.9022  15.8132  18.9998  19.8818
    20.3162

          k = 0.1561 0.8113 0.0555 (   510 PWs)   bands (ev):

    -0.0131   1.4700   4.8367   6.2387  11.6307  16.0752  18.0745  21.6694
    22.6826

          k = 0.0000 0.5409 0.1666 (   521 PWs)   bands (ev):

    -1.9538   2.2321   6.9364   8.4261  12.2692  14.6640  18.4168  19.3177
    20.2739

          k = 0.6246 0.0000-0.2777 (   510 PWs)   bands (ev):

    -0.7759   3.5677   4.1210   7.4171   8.2074  15.1073  20.3183  21.3313
    24.0891

          k = 0.0000 0.0000 0.4998 (   522 PWs)   bands (ev):

    -2.6419   1.8226  11.1040  11.1040  13.1358  13.1358  14.2244  15.5723
    23.1934

          k = 0.4684 0.8113 0.1666 (   520 PWs)   bands (ev):

    -0.4513   0.7658   5.5611   9.1207  10.6403  15.7280  18.3112  20.8757
    21.8748

     the Fermi energy is    13.1931 ev

!    total energy              =     -25.40308622 Ry
     Harris-Foulkes estimate   =     -25.40308622 Ry
     estimated scf accuracy    <          7.6E-10 Ry

     The total energy is the sum of the following terms:

     one-electron contribution =      11.82823781 Ry
     hartree contribution      =       0.57926465 Ry
     xc contribution           =      -6.78896153 Ry
     ewald contribution        =     -31.02164526 Ry
     smearing contrib. (-TS)   =       0.00001812 Ry

     convergence has been achieved in   5 iterations

     Forces acting on atoms (Ry/au):

     atom    1 type  1   force =    -0.00000000   -0.00000000   -0.00157068
     atom    2 type  1   force =     0.00000000    0.00000000    0.00157068

     Total force =     0.002221     Total SCF correction =     0.000001


     entering subroutine stress ...

          total   stress  (Ry/bohr**3)                   (kbar)     P=  492.31
   0.00336742  -0.00000000  -0.00000000        495.36     -0.00     -0.00
   0.00000000   0.00336742   0.00000000          0.00    495.36      0.00
  -0.00000000  -0.00000000   0.00330513         -0.00     -0.00    486.20


     number of scf cycles    =   8
     number of bfgs steps    =   7

     enthalpy old            =     -24.7525100157 Ry
     enthalpy new            =     -24.7529517064 Ry

     CASE: enthalpy_new < enthalpy_old

     new trust radius        =       0.0103404326 bohr
     new conv_thr            =       0.0000000157 Ry

     new unit-cell volume =    190.97734 a.u.^3 (    28.29992 Ang^3 )

CELL_PARAMETERS (alat=  7.01033623)
   0.534282601   0.000000000   0.747431541
  -0.267141214   0.462702257   0.747431598
  -0.267141214  -0.462702257   0.747431598

ATOMIC_POSITIONS (crystal)
As       0.250109084   0.250109058   0.250109058
As      -0.250109084  -0.250109058  -0.250109058



     Writing output data file pwscf.save
     NEW-OLD atomic charge density approx. for the potential
     extrapolated charge    9.98435, renormalised to   10.00000

     total cpu time spent up to now is        3.9 secs

     per-process dynamical memory:     4.0 Mb

     Self-consistent Calculation

     iteration #  1     ecut=    25.00 Ry     beta=0.70
     Davidson diagonalization with overlap
     ethr =  1.00E-06,  avg # of iterations =  3.5

     Threshold (ethr) on eigenvalues was too large:
     Diagonalizing with lowered threshold

     Davidson diagonalization with overlap
     ethr =  1.42E-08,  avg # of iterations =  1.3

     total cpu time spent up to now is        4.0 secs

     total energy              =     -25.40211681 Ry
     Harris-Foulkes estimate   =     -25.39006254 Ry
     estimated scf accuracy    <       0.00000143 Ry

     iteration #  2     ecut=    25.00 Ry     beta=0.70
     Davidson diagonalization with overlap
     ethr =  1.43E-08,  avg # of iterations =  2.0

     total cpu time spent up to now is        4.1 secs

     total energy              =     -25.40211740 Ry
     Harris-Foulkes estimate   =     -25.40211745 Ry
     estimated scf accuracy    <       0.00000019 Ry

     iteration #  3     ecut=    25.00 Ry     beta=0.70
     Davidson diagonalization with overlap
     ethr =  1.86E-09,  avg # of iterations =  1.0

     total cpu time spent up to now is        4.1 secs

     End of self-consistent calculation

          k = 0.0000 0.0000 0.1672 (   531 PWs)   bands (ev):

    -4.8518   8.1642  10.7572  10.7572  13.4691  17.1491  17.1492  18.1168
    18.8794

          k =-0.1560-0.2702 0.2787 (   522 PWs)   bands (ev):

    -3.3849   3.7609   8.3927  12.4714  12.4918  13.7977  15.5789  19.1891
    19.8847

          k = 0.3119 0.5403-0.0557 (   520 PWs)   bands (ev):

    -1.2067   0.2914   9.2265   9.8523  11.2835  14.4883  16.6103  17.3304
    22.3775

          k = 0.1560 0.2702 0.0557 (   525 PWs)   bands (ev):

    -4.1312   5.8541   9.4265  10.2598  12.4127  16.2678  17.4702  17.8871
    18.7085

          k =-0.3119 0.0000 0.3902 (   519 PWs)   bands (ev):

    -2.6623   4.4256   7.7009   8.1107   8.9200  15.8344  19.0085  19.8789
    20.3153

          k = 0.1560 0.8105 0.0557 (   510 PWs)   bands (ev):

     0.0087   1.4772   4.8432   6.2813  11.6710  16.0886  18.0670  21.7470
    22.7644

          k = 0.0000 0.5403 0.1672 (   521 PWs)   bands (ev):

    -1.9469   2.2398   6.9559   8.4582  12.3379  14.7355  18.4498  19.3312
    20.2999

          k = 0.6239 0.0000-0.2787 (   510 PWs)   bands (ev):

    -0.7634   3.6008   4.1428   7.4051   8.2401  15.1515  20.3744  21.3738
    24.1631

          k = 0.0000 0.0000 0.5017 (   522 PWs)   bands (ev):

    -2.6136   1.8813  11.0884  11.0884  13.1304  13.1304  14.1994  15.5499
    23.2541

          k = 0.4679 0.8105 0.1672 (   520 PWs)   bands (ev):

    -0.4160   0.8052   5.5600   9.1118  10.6340  15.7290  18.2920  20.9141
    21.9166

     the Fermi energy is    13.4118 ev

!    total energy              =     -25.40211740 Ry
     Harris-Foulkes estimate   =     -25.40211741 Ry
     estimated scf accuracy    <       0.00000001 Ry

     The total energy is the sum of the following terms:

     one-electron contribution =      11.84965948 Ry
     hartree contribution      =       0.57781165 Ry
     xc contribution           =      -6.79152077 Ry
     ewald contribution        =     -31.03807682 Ry
     smearing contrib. (-TS)   =       0.00000906 Ry

     convergence has been achieved in   3 iterations

     Forces acting on atoms (Ry/au):

     atom    1 type  1   force =    -0.00000000   -0.00000000   -0.00047659
     atom    2 type  1   force =     0.00000000    0.00000000    0.00047659

     Total force =     0.000674     Total SCF correction =     0.000005


     entering subroutine stress ...

          total   stress  (Ry/bohr**3)                   (kbar)     P=  497.10
   0.00337896   0.00000000  -0.00000000        497.06      0.00     -0.00
   0.00000000   0.00337896  -0.00000000          0.00    497.06     -0.00
  -0.00000000   0.00000000   0.00337983         -0.00      0.00    497.19


     number of scf cycles    =   9
     number of bfgs steps    =   8

     enthalpy old            =     -24.7529517064 Ry
     enthalpy new            =     -24.7529985004 Ry

     CASE: enthalpy_new < enthalpy_old

     new trust radius        =       0.0016333016 bohr
     new conv_thr            =       0.0000000047 Ry

     new unit-cell volume =    190.80060 a.u.^3 (    28.27373 Ang^3 )

CELL_PARAMETERS (alat=  7.01033623)
   0.534114193   0.000000000   0.747210790
  -0.267057011   0.462556411   0.747210848
  -0.267057011  -0.462556411   0.747210848

ATOMIC_POSITIONS (crystal)
As       0.250005179   0.250005153   0.250005153
As      -0.250005179  -0.250005153  -0.250005153



     Writing output data file pwscf.save
     NEW-OLD atomic charge density approx. for the potential
     extrapolated charge    9.99074, renormalised to   10.00000

     total cpu time spent up to now is        4.3 secs

     per-process dynamical memory:     4.0 Mb

     Self-consistent Calculation

     iteration #  1     ecut=    25.00 Ry     beta=0.70
     Davidson diagonalization with overlap
     ethr =  1.00E-06,  avg # of iterations =  2.0

     Threshold (ethr) on eigenvalues was too large:
     Diagonalizing with lowered threshold

     Davidson diagonalization with overlap
     ethr =  2.60E-09,  avg # of iterations =  2.2

     total cpu time spent up to now is        4.4 secs

     total energy              =     -25.40151907 Ry
     Harris-Foulkes estimate   =     -25.39437818 Ry
     estimated scf accuracy    <       0.00000024 Ry

     iteration #  2     ecut=    25.00 Ry     beta=0.70
     Davidson diagonalization with overlap
     ethr =  2.43E-09,  avg # of iterations =  2.0

     total cpu time spent up to now is        4.4 secs

     total energy              =     -25.40151926 Ry
     Harris-Foulkes estimate   =     -25.40151928 Ry
     estimated scf accuracy    <       0.00000005 Ry

     iteration #  3     ecut=    25.00 Ry     beta=0.70
     Davidson diagonalization with overlap
     ethr =  5.08E-10,  avg # of iterations =  1.0

     total cpu time spent up to now is        4.5 secs

     total energy              =     -25.40151926 Ry
     Harris-Foulkes estimate   =     -25.40151926 Ry
     estimated scf accuracy    <          6.8E-09 Ry

     iteration #  4     ecut=    25.00 Ry     beta=0.70
     Davidson diagonalization with overlap
     ethr =  6.85E-11,  avg # of iterations =  1.7

     total cpu time spent up to now is        4.5 secs

     End of self-consistent calculation

          k = 0.0000 0.0000 0.1673 (   531 PWs)   bands (ev):

    -4.8461   8.1811  10.7720  10.7720  13.4934  17.1678  17.1678  18.1381
    18.8949

          k =-0.1560-0.2702 0.2788 (   522 PWs)   bands (ev):

    -3.3782   3.7740   8.4047  12.4945  12.4995  13.8150  15.6015  19.2103
    19.9026

          k = 0.3120 0.5405-0.0558 (   520 PWs)   bands (ev):

    -1.1983   0.3010   9.2393   9.8654  11.2993  14.5049  16.6311  17.3510
    22.3967

          k = 0.1560 0.2702 0.0558 (   525 PWs)   bands (ev):

    -4.1250   5.8694   9.4396  10.2749  12.4280  16.2906  17.4857  17.9063
    18.7298

          k =-0.3120 0.0000 0.3903 (   519 PWs)   bands (ev):

    -2.6550   4.4399   7.7128   8.1226   8.9341  15.8474  19.0290  19.9016
    20.3413

          k = 0.1560 0.8107 0.0558 (   510 PWs)   bands (ev):

     0.0188   1.4885   4.8521   6.2915  11.6874  16.1081  18.0822  21.7709
    22.7844

          k = 0.0000 0.5405 0.1673 (   521 PWs)   bands (ev):

    -1.9390   2.2517   6.9667   8.4705  12.3545  14.7531  18.4680  19.3525
    20.3225

          k = 0.6241 0.0000-0.2788 (   510 PWs)   bands (ev):

    -0.7537   3.6147   4.1510   7.4163   8.2537  15.1640  20.3965  21.3983
    24.1907

          k = 0.0000 0.0000 0.5019 (   522 PWs)   bands (ev):

    -2.6064   1.8921  11.1028  11.1028  13.1459  13.1459  14.2201  15.5703
    23.2767

          k = 0.4681 0.8107 0.1673 (   520 PWs)   bands (ev):

    -0.4070   0.8159   5.5696   9.1242  10.6497  15.7473  18.3153  20.9337
    21.9392

     the Fermi energy is    13.4361 ev

!    total energy              =     -25.40151926 Ry
     Harris-Foulkes estimate   =     -25.40151926 Ry
     estimated scf accuracy    <          9.9E-11 Ry

     The total energy is the sum of the following terms:

     one-electron contribution =      11.86220010 Ry
     hartree contribution      =       0.57699154 Ry
     xc contribution           =      -6.79305709 Ry
     ewald contribution        =     -31.04766288 Ry
     smearing contrib. (-TS)   =       0.00000906 Ry

     convergence has been achieved in   4 iterations

     Forces acting on atoms (Ry/au):

     atom    1 type  1   force =    -0.00000000    0.00000000   -0.00002331
     atom    2 type  1   force =     0.00000000    0.00000000    0.00002331

     Total force =     0.000033     Total SCF correction =     0.000001


     entering subroutine stress ...

          total   stress  (Ry/bohr**3)                   (kbar)     P=  499.88
   0.00339773   0.00000000  -0.00000000        499.82      0.00     -0.00
   0.00000000   0.00339773  -0.00000000          0.00    499.82     -0.00
  -0.00000000  -0.00000000   0.00339897         -0.00     -0.00    500.01


     bfgs converged in  10 scf cycles and   9 bfgs steps
     (criteria: energy <  1.0E-05, force <  1.0E-04, cell <  5.0E-01)

     End of BFGS Geometry Optimization

     Final enthalpy =     -24.7530010962 Ry
Begin final coordinates
     new unit-cell volume =    190.80060 a.u.^3 (    28.27373 Ang^3 )

CELL_PARAMETERS (alat=  7.01033623)
   0.534114193   0.000000000   0.747210790
  -0.267057011   0.462556411   0.747210848
  -0.267057011  -0.462556411   0.747210848

ATOMIC_POSITIONS (crystal)
As       0.250005179   0.250005153   0.250005153
As      -0.250005179  -0.250005153  -0.250005153
End final coordinates



     A final scf calculation at the relaxed structure.
     The G-vectors are recalculated for the final unit cell
     Results may differ from those at the preceding step.
 
     Parallelization info
     --------------------
     sticks:   dense  smooth     PW     G-vecs:    dense   smooth      PW
     Min         143     143     46                 1610     1610     316
     Max         144     144     47                 1611     1611     317
     Sum         287     287     93                 3221     3221     633
 


     bravais-lattice index     =            0
     lattice parameter (alat)  =       7.0103  a.u.
     unit-cell volume          =     190.8006 (a.u.)^3
     number of atoms/cell      =            2
     number of atomic types    =            1
     number of electrons       =        10.00
     number of Kohn-Sham states=            9
     kinetic-energy cutoff     =      25.0000  Ry
     charge density cutoff     =     100.0000  Ry
     convergence threshold     =      4.7E-09
     mixing beta               =       0.7000
     number of iterations used =            8  plain     mixing
     Exchange-correlation      =  SLA  PZ   NOGX NOGC ( 1  1  0  0 0 0)

     celldm(1)=   7.010336  celldm(2)=   0.000000  celldm(3)=   0.000000
     celldm(4)=   0.000000  celldm(5)=   0.000000  celldm(6)=   0.000000

     crystal axes: (cart. coord. in units of alat)
               a(1) = (   0.534114   0.000000   0.747211 )  
               a(2) = (  -0.267057   0.462556   0.747211 )  
               a(3) = (  -0.267057  -0.462556   0.747211 )  

     reciprocal axes: (cart. coord. in units 2 pi/alat)
               b(1) = (  1.248173  0.000000  0.446103 )  
               b(2) = ( -0.624086  1.080949  0.446104 )  
               b(3) = ( -0.624086 -1.080949  0.446104 )  


     PseudoPot. # 1 for As read from file:
     /home/nvarini/espresso_hdf5/espresso/pseudo/As.pz-bhs.UPF
     MD5 check sum: 451cd3365afcfc94d28b1934951c34a8
     Pseudo is Norm-conserving, Zval =  5.0
     Generated by new atomic code, or converted to UPF format
     Using radial grid of  525 points,  2 beta functions with: 
                l(1) =   0
                l(2) =   1

     atomic species   valence    mass     pseudopotential
        As             5.00    74.90000     As( 1.00)

     12 Sym. Ops., with inversion, found



   Cartesian axes

     site n.     atom                  positions (alat units)
         1           As  tau(   1) = (   0.0000001   0.0000000   0.5604197  )
         2           As  tau(   2) = (  -0.0000001  -0.0000000  -0.5604197  )

     number of k points=    10  Methfessel-Paxton smearing, width (Ry)=  0.0050
                       cart. coord. in units 2pi/alat
        k(    1) = (   0.0000000   0.0000000   0.1672888), wk =   0.0625000
        k(    2) = (  -0.1560216  -0.2702373   0.2788147), wk =   0.1875000
        k(    3) = (   0.3120432   0.5404746  -0.0557630), wk =   0.1875000
        k(    4) = (   0.1560216   0.2702373   0.0557629), wk =   0.1875000
        k(    5) = (  -0.3120431   0.0000000   0.3903405), wk =   0.1875000
        k(    6) = (   0.1560216   0.8107119   0.0557629), wk =   0.3750000
        k(    7) = (   0.0000000   0.5404746   0.1672888), wk =   0.3750000
        k(    8) = (   0.6240863   0.0000000  -0.2788147), wk =   0.1875000
        k(    9) = (   0.0000000   0.0000000   0.5018664), wk =   0.0625000
        k(   10) = (   0.4680648   0.8107119   0.1672888), wk =   0.1875000

     Dense  grid:     3221 G-vectors     FFT dimensions: (  24,  24,  24)

     Largest allocated arrays     est. size (Mb)     dimensions
        Kohn-Sham Wavefunctions         0.03 Mb     (     206,    9)
        NL pseudopotentials             0.03 Mb     (     206,    8)
        Each V/rho on FFT grid          0.11 Mb     (    6912)
        Each G-vector array             0.01 Mb     (    1610)
        G-vector shells                 0.01 Mb     (     825)
     Largest temporary arrays     est. size (Mb)     dimensions
        Auxiliary wavefunctions         0.11 Mb     (     206,   36)
        Each subspace H/S matrix        0.02 Mb     (      36,   36)
        Each <psi_i|beta_j> matrix      0.00 Mb     (       8,    9)
        Arrays for rho mixing           0.84 Mb     (    6912,    8)

     Initial potential from superposition of free atoms

     starting charge    9.99960, renormalised to   10.00000
     Starting wfc are    8 randomized atomic wfcs +    1 random wfc

     Writing output data file pwscf.save

     total cpu time spent up to now is        4.7 secs

     per-process dynamical memory:     4.0 Mb

     Self-consistent Calculation

     iteration #  1     ecut=    25.00 Ry     beta=0.70
     Davidson diagonalization with overlap
     ethr =  1.00E-06,  avg # of iterations = 10.6

     total cpu time spent up to now is        4.9 secs

     total energy              =     -25.39786644 Ry
     Harris-Foulkes estimate   =     -25.40003378 Ry
     estimated scf accuracy    <       0.01490690 Ry

     iteration #  2     ecut=    25.00 Ry     beta=0.70
     Davidson diagonalization with overlap
     ethr =  1.49E-04,  avg # of iterations =  1.0

     total cpu time spent up to now is        4.9 secs

     total energy              =     -25.39784491 Ry
     Harris-Foulkes estimate   =     -25.39797952 Ry
     estimated scf accuracy    <       0.00110540 Ry

     iteration #  3     ecut=    25.00 Ry     beta=0.70
     Davidson diagonalization with overlap
     ethr =  1.11E-05,  avg # of iterations =  1.0

     total cpu time spent up to now is        4.9 secs

     total energy              =     -25.39785500 Ry
     Harris-Foulkes estimate   =     -25.39785547 Ry
     estimated scf accuracy    <       0.00000169 Ry

     iteration #  4     ecut=    25.00 Ry     beta=0.70
     Davidson diagonalization with overlap
     ethr =  1.69E-08,  avg # of iterations =  3.0

     total cpu time spent up to now is        5.0 secs

     total energy              =     -25.39785676 Ry
     Harris-Foulkes estimate   =     -25.39785681 Ry
     estimated scf accuracy    <       0.00000013 Ry

     iteration #  5     ecut=    25.00 Ry     beta=0.70
     Davidson diagonalization with overlap
     ethr =  1.28E-09,  avg # of iterations =  1.5

     total cpu time spent up to now is        5.1 secs

     total energy              =     -25.39785677 Ry
     Harris-Foulkes estimate   =     -25.39785677 Ry
     estimated scf accuracy    <          5.4E-09 Ry

     iteration #  6     ecut=    25.00 Ry     beta=0.70
     Davidson diagonalization with overlap
     ethr =  5.36E-11,  avg # of iterations =  2.0

     total cpu time spent up to now is        5.1 secs

     End of self-consistent calculation

          k = 0.0000 0.0000 0.1673 (   396 PWs)   bands (ev):

    -4.8415   8.1940  10.7720  10.7720  13.5172  17.1700  17.1700  18.1435
    18.8985

          k =-0.1560-0.2702 0.2788 (   397 PWs)   bands (ev):

    -3.3732   3.7835   8.4063  12.4955  12.5007  13.8200  15.6148  19.2148
    19.9069

          k = 0.3120 0.5405-0.0558 (   401 PWs)   bands (ev):

    -1.1925   0.3079   9.2414   9.8658  11.3045  14.5063  16.6391  17.3574
    22.4005

          k = 0.1560 0.2702 0.0558 (   396 PWs)   bands (ev):

    -4.1203   5.8812   9.4402  10.2794  12.4304  16.3063  17.4907  17.9081
    18.7351

          k =-0.3120 0.0000 0.3903 (   407 PWs)   bands (ev):

    -2.6500   4.4491   7.7149   8.1228   8.9378  15.8498  19.0312  19.9059
    20.3502

          k = 0.1560 0.8107 0.0558 (   402 PWs)   bands (ev):

     0.0251   1.4955   4.8532   6.2925  11.6906  16.1115  18.0850  21.7741
    22.7876

          k = 0.0000 0.5405 0.1673 (   405 PWs)   bands (ev):

    -1.9337   2.2601   6.9680   8.4724  12.3582  14.7563  18.4722  19.3594
    20.3260

          k = 0.6241 0.0000-0.2788 (   410 PWs)   bands (ev):

    -0.7483   3.6229   4.1519   7.4164   8.2563  15.1665  20.3979  21.4015
    24.1951

          k = 0.0000 0.0000 0.5019 (   407 PWs)   bands (ev):

    -2.6011   1.8994  11.1035  11.1035  13.1471  13.1471  14.2306  15.5783
    23.2829

          k = 0.4681 0.8107 0.1673 (   403 PWs)   bands (ev):

    -0.4009   0.8235   5.5708   9.1247  10.6548  15.7487  18.3233  20.9368
    21.9429

     the Fermi energy is    13.4599 ev

!    total energy              =     -25.39785677 Ry
     Harris-Foulkes estimate   =     -25.39785677 Ry
     estimated scf accuracy    <          4.7E-11 Ry

     The total energy is the sum of the following terms:

     one-electron contribution =      11.86634191 Ry
     hartree contribution      =       0.57608023 Ry
     xc contribution           =      -6.79262505 Ry
     ewald contribution        =     -31.04766292 Ry
     smearing contrib. (-TS)   =       0.00000906 Ry

     convergence has been achieved in   6 iterations

     Forces acting on atoms (Ry/au):

     atom    1 type  1   force =    -0.00000000    0.00000000   -0.00002249
     atom    2 type  1   force =     0.00000000    0.00000000    0.00002249

     Total force =     0.000032     Total SCF correction =     0.000000


     entering subroutine stress ...

          total   stress  (Ry/bohr**3)                   (kbar)     P=  501.84
   0.00341026   0.00000000  -0.00000000        501.67      0.00     -0.00
   0.00000000   0.00341026  -0.00000000          0.00    501.67     -0.00
  -0.00000000   0.00000000   0.00341376         -0.00      0.00    502.18


     Writing output data file pwscf.save
 
     init_run     :      0.12s CPU      0.12s WALL (       2 calls)
     electrons    :      3.63s CPU      3.74s WALL (      11 calls)
     update_pot   :      0.33s CPU      0.34s WALL (       9 calls)
     forces       :      0.16s CPU      0.17s WALL (      11 calls)
     stress       :      0.29s CPU      0.29s WALL (      11 calls)

     Called by init_run:
     wfcinit      :      0.04s CPU      0.04s WALL (       2 calls)
     potinit      :      0.02s CPU      0.02s WALL (       2 calls)

     Called by electrons:
     c_bands      :      3.05s CPU      3.14s WALL (      55 calls)
     sum_band     :      0.50s CPU      0.51s WALL (      55 calls)
     v_of_rho     :      0.04s CPU      0.04s WALL (      62 calls)
     mix_rho      :      0.02s CPU      0.02s WALL (      55 calls)

     Called by c_bands:
     init_us_2    :      0.07s CPU      0.07s WALL (    1340 calls)
     cegterg      :      2.97s CPU      3.06s WALL (     550 calls)

     Called by sum_band:

     Called by *egterg:
     h_psi        :      2.25s CPU      2.33s WALL (    1929 calls)
     g_psi        :      0.02s CPU      0.03s WALL (    1359 calls)
     cdiaghg      :      0.40s CPU      0.39s WALL (    1779 calls)

     Called by h_psi:
     add_vuspsi   :      0.03s CPU      0.04s WALL (    1929 calls)

     General routines
     calbec       :      0.09s CPU      0.09s WALL (    2479 calls)
     fft          :      0.03s CPU      0.03s WALL (     309 calls)
     fftw         :      2.29s CPU      2.32s WALL (   32584 calls)
 
     Parallel routines
     fft_scatter  :      0.57s CPU      0.59s WALL (   32893 calls)
 
     PWSCF        :     5.06s CPU         5.20s WALL

 
   This run was terminated on:  15:41: 6  21Jul2016            

=------------------------------------------------------------------------------=
   JOB DONE.
=------------------------------------------------------------------------------=
