
     Program PWSCF v.5.4.0 (svn rev. 12828M) starts on 23Aug2016 at 14:38:34 

     This program is part of the open-source Quantum ESPRESSO suite
     for quantum simulation of materials; please cite
         "P. Giannozzi et al., J. Phys.:Condens. Matter 21 395502 (2009);
          URL http://www.quantum-espresso.org", 
     in publications or presentations arising from this work. More details at
     http://www.quantum-espresso.org/quote
 
           HOST :    x86_64-pc-linux-gnu
           ARCH :    x86_64
             CC :    icc
            CPP :    cpp
            F90 :    ifort
            F77 :    ifort
         DFLAGS :    -D__INTEL -D__FFTW -D__MPI -D__PARA -D__HDF5
      BLAS LIBS :    -lmkl_intel_lp64  -lmkl_sequential -lmkl_core
    LAPACK LIBS :    
       FFT LIBS :    
      MASS LIBS :    

     Parallel version (MPI), running on     2 processors
     R & G space division:  proc/nbgrp/npool/nimage =       2
     Waiting for input...
     Reading input from standard input
     Message from routine read_cards :
     DEPRECATED: no units specified in CELL_PARAMETERS card

     Current dimensions of program PWSCF are:
     Max number of different atomic species (ntypx) = 10
     Max number of k-points (npk) =  40000
     Max angular momentum in pseudopotentials (lmaxx) =  3

     Subspace diagonalization in iterative solution of the eigenvalue problem:
     a serial algorithm will be used

 
     Parallelization info
     --------------------
     sticks:   dense  smooth     PW     G-vecs:    dense   smooth      PW
     Min         174     174     60                 2079     2079     416
     Max         175     175     61                 2080     2080     417
     Sum         349     349    121                 4159     4159     833
 


     bravais-lattice index     =            0
     lattice parameter (alat)  =       7.0103  a.u.
     unit-cell volume          =     245.3705 (a.u.)^3
     number of atoms/cell      =            2
     number of atomic types    =            1
     number of electrons       =        10.00
     number of Kohn-Sham states=            9
     kinetic-energy cutoff     =      25.0000  Ry
     charge density cutoff     =     100.0000  Ry
     convergence threshold     =      1.0E-07
     mixing beta               =       0.7000
     number of iterations used =            8  plain     mixing
     Exchange-correlation      =  SLA  PZ   NOGX NOGC ( 1  1  0  0 0 0)
     nstep                     =           50


     celldm(1)=   7.010336  celldm(2)=   0.000000  celldm(3)=   0.000000
     celldm(4)=   0.000000  celldm(5)=   0.000000  celldm(6)=   0.000000

     crystal axes: (cart. coord. in units of alat)
               a(1) = (   0.580130   0.000000   0.814524 )  
               a(2) = (  -0.290065   0.502407   0.814524 )  
               a(3) = (  -0.290065  -0.502407   0.814524 )  

     reciprocal axes: (cart. coord. in units 2 pi/alat)
               b(1) = (  1.149169  0.000000  0.409237 )  
               b(2) = ( -0.574584  0.995209  0.409237 )  
               b(3) = ( -0.574584 -0.995209  0.409237 )  


     PseudoPot. # 1 for As read from file:
     /home/nvarini/espresso_hdf5/espresso/pseudo/As.pz-bhs.UPF
     MD5 check sum: 451cd3365afcfc94d28b1934951c34a8
     Pseudo is Norm-conserving, Zval =  5.0
     Generated by new atomic code, or converted to UPF format
     Using radial grid of  525 points,  2 beta functions with: 
                l(1) =   0
                l(2) =   1

     atomic species   valence    mass     pseudopotential
        As             5.00    74.90000     As( 1.00)

     12 Sym. Ops., with inversion, found



   Cartesian axes

     site n.     atom                  positions (alat units)
         1           As  tau(   1) = (   0.0000001   0.0000000   0.7086605  )
         2           As  tau(   2) = (  -0.0000001   0.0000000  -0.7086605  )

     number of k points=    10  Methfessel-Paxton smearing, width (Ry)=  0.0050
                       cart. coord. in units 2pi/alat
        k(    1) = (   0.0000000   0.0000000   0.1534638), wk =   0.0625000
        k(    2) = (  -0.1436461  -0.2488023   0.2557731), wk =   0.1875000
        k(    3) = (   0.2872922   0.4976046  -0.0511547), wk =   0.1875000
        k(    4) = (   0.1436461   0.2488023   0.0511546), wk =   0.1875000
        k(    5) = (  -0.2872922   0.0000000   0.3580823), wk =   0.1875000
        k(    6) = (   0.1436461   0.7464070   0.0511546), wk =   0.3750000
        k(    7) = (   0.0000000   0.4976046   0.1534638), wk =   0.3750000
        k(    8) = (   0.5745844   0.0000000  -0.2557731), wk =   0.1875000
        k(    9) = (   0.0000000   0.0000000   0.4603915), wk =   0.0625000
        k(   10) = (   0.4309383   0.7464070   0.1534638), wk =   0.1875000

     Dense  grid:     4159 G-vectors     FFT dimensions: (  24,  24,  24)

     Estimated max dynamical RAM per process >       1.91Mb

     Estimated total allocated dynamical RAM >       3.83Mb

     Initial potential from superposition of free atoms

     starting charge    9.99960, renormalised to   10.00000
     Starting wfc are    8 randomized atomic wfcs +    1 random wfc

     total cpu time spent up to now is        0.1 secs

     per-process dynamical memory:     2.8 Mb

     Self-consistent Calculation

     iteration #  1     ecut=    25.00 Ry     beta=0.70
     Davidson diagonalization with overlap
     ethr =  1.00E-02,  avg # of iterations =  4.3

     Threshold (ethr) on eigenvalues was too large:
     Diagonalizing with lowered threshold

     Davidson diagonalization with overlap
     ethr =  1.54E-04,  avg # of iterations =  1.3

     total cpu time spent up to now is        0.2 secs

     total energy              =     -25.43995582 Ry
     Harris-Foulkes estimate   =     -25.44371120 Ry
     estimated scf accuracy    <       0.01555792 Ry

     iteration #  2     ecut=    25.00 Ry     beta=0.70
     Davidson diagonalization with overlap
     ethr =  1.56E-04,  avg # of iterations =  1.0

     total cpu time spent up to now is        0.3 secs

     total energy              =     -25.44007958 Ry
     Harris-Foulkes estimate   =     -25.44026237 Ry
     estimated scf accuracy    <       0.00088852 Ry

     iteration #  3     ecut=    25.00 Ry     beta=0.70
     Davidson diagonalization with overlap
     ethr =  8.89E-06,  avg # of iterations =  1.6

     total cpu time spent up to now is        0.3 secs

     total energy              =     -25.44011386 Ry
     Harris-Foulkes estimate   =     -25.44011521 Ry
     estimated scf accuracy    <       0.00000507 Ry

     iteration #  4     ecut=    25.00 Ry     beta=0.70
     Davidson diagonalization with overlap
     ethr =  5.07E-08,  avg # of iterations =  3.1

     total cpu time spent up to now is        0.4 secs

     total energy              =     -25.44012213 Ry
     Harris-Foulkes estimate   =     -25.44012249 Ry
     estimated scf accuracy    <       0.00000078 Ry

     iteration #  5     ecut=    25.00 Ry     beta=0.70
     Davidson diagonalization with overlap
     ethr =  7.81E-09,  avg # of iterations =  1.4

     total cpu time spent up to now is        0.4 secs

     End of self-consistent calculation

          k = 0.0000 0.0000 0.1535 (   531 PWs)   bands (ev):

    -6.9960   4.5196   5.9667   5.9667   8.4360  11.0403  11.7601  11.7601
    16.5646

          k =-0.1436-0.2488 0.2558 (   522 PWs)   bands (ev):

    -5.9250   0.3917   5.3512   5.6501   9.2996  10.5303  11.7005  13.5632
    15.7167

          k = 0.2873 0.4976-0.0512 (   520 PWs)   bands (ev):

    -4.3490  -2.4705   4.7883   6.1553   7.8795  10.8148  12.5848  13.8261
    17.7262

          k = 0.1436 0.2488 0.0512 (   525 PWs)   bands (ev):

    -6.3695   1.3042   4.9860   7.1720   8.5434  10.8049  12.4702  13.9612
    15.3511

          k =-0.2873 0.0000 0.3581 (   519 PWs)   bands (ev):

    -5.5427   1.1264   3.5658   4.2977   7.5158  10.4217  13.7075  13.7746
    16.9045

          k = 0.1436 0.7464 0.0512 (   510 PWs)   bands (ev):

    -3.8394  -1.8100   2.3270   4.2466   8.0538  11.6204  13.3234  15.7202
    17.3489

          k = 0.0000 0.4976 0.1535 (   521 PWs)   bands (ev):

    -4.7124  -1.4722   3.0016   6.6925   7.7777  12.3034  13.0675  13.4304
    16.0961

          k = 0.5746 0.0000-0.2558 (   510 PWs)   bands (ev):

    -4.0542  -1.5061   3.7084   3.7296   6.0242  10.0593  15.9112  17.7151
    18.4776

          k = 0.0000 0.0000 0.4604 (   522 PWs)   bands (ev):

    -5.8586   0.8360   5.8840   5.8840   7.4114  10.0627  10.0627  12.1191
    17.3944

          k = 0.4309 0.7464 0.1535 (   520 PWs)   bands (ev):

    -4.8493  -0.0499   2.4338   4.7831   7.5088  11.6828  12.0642  14.4760
    17.7700

     the Fermi energy is    10.0033 ev

!    total energy              =     -25.44012222 Ry
     Harris-Foulkes estimate   =     -25.44012223 Ry
     estimated scf accuracy    <       0.00000002 Ry

     The total energy is the sum of the following terms:

     one-electron contribution =       7.72810095 Ry
     hartree contribution      =       1.22166464 Ry
     xc contribution           =      -6.50440356 Ry
     ewald contribution        =     -27.88552965 Ry
     smearing contrib. (-TS)   =       0.00004540 Ry

     convergence has been achieved in   5 iterations

     Forces acting on atoms (Ry/au):

     atom    1 type  1   force =     0.00000000    0.00000000   -0.12659853
     atom    2 type  1   force =     0.00000000    0.00000000    0.12659853

     Total force =     0.179037     Total SCF correction =     0.000029


     entering subroutine stress ...

          total   stress  (Ry/bohr**3)                   (kbar)     P=  217.53
   0.00172380  -0.00000000  -0.00000000        253.58     -0.00     -0.00
   0.00000000   0.00172380   0.00000000          0.00    253.58      0.00
  -0.00000000   0.00000000   0.00098859         -0.00      0.00    145.43


     BFGS Geometry Optimization

     number of scf cycles    =   1
     number of bfgs steps    =   0

     enthalpy new            =     -24.6061248127 Ry

     new trust radius        =       0.1887819010 bohr
     new conv_thr            =       0.0000001000 Ry

     new unit-cell volume =    211.67618 a.u.^3 (    31.36717 Ang^3 )

CELL_PARAMETERS (alat=  7.01033623)
   0.555834718   0.000000000   0.765442106
  -0.277917185   0.481366941   0.765442112
  -0.277917185  -0.481366941   0.765442112

ATOMIC_POSITIONS (crystal)
As       0.282619661   0.282619656   0.282619656
As      -0.282619661  -0.282619656  -0.282619656



     Writing output data file pwscf.save
     NEW-OLD atomic charge density approx. for the potential
     extrapolated charge    8.40828, renormalised to   10.00000

     total cpu time spent up to now is        0.6 secs

     per-process dynamical memory:     3.9 Mb

     Self-consistent Calculation

     iteration #  1     ecut=    25.00 Ry     beta=0.70
     Davidson diagonalization with overlap
     ethr =  1.00E-06,  avg # of iterations =  5.1

     total cpu time spent up to now is        0.7 secs

     total energy              =     -25.38371098 Ry
     Harris-Foulkes estimate   =     -24.32080843 Ry
     estimated scf accuracy    <       0.02063861 Ry

     iteration #  2     ecut=    25.00 Ry     beta=0.70
     Davidson diagonalization with overlap
     ethr =  2.06E-04,  avg # of iterations =  2.6

     total cpu time spent up to now is        0.8 secs

     total energy              =     -25.40138839 Ry
     Harris-Foulkes estimate   =     -25.40441378 Ry
     estimated scf accuracy    <       0.00628306 Ry

     iteration #  3     ecut=    25.00 Ry     beta=0.70
     Davidson diagonalization with overlap
     ethr =  6.28E-05,  avg # of iterations =  1.1

     total cpu time spent up to now is        0.8 secs

     total energy              =     -25.40159623 Ry
     Harris-Foulkes estimate   =     -25.40190016 Ry
     estimated scf accuracy    <       0.00065384 Ry

     iteration #  4     ecut=    25.00 Ry     beta=0.70
     Davidson diagonalization with overlap
     ethr =  6.54E-06,  avg # of iterations =  2.0

     total cpu time spent up to now is        0.9 secs

     total energy              =     -25.40163929 Ry
     Harris-Foulkes estimate   =     -25.40166756 Ry
     estimated scf accuracy    <       0.00005042 Ry

     iteration #  5     ecut=    25.00 Ry     beta=0.70
     Davidson diagonalization with overlap
     ethr =  5.04E-07,  avg # of iterations =  2.8

     total cpu time spent up to now is        1.0 secs

     total energy              =     -25.40166396 Ry
     Harris-Foulkes estimate   =     -25.40166470 Ry
     estimated scf accuracy    <       0.00000331 Ry

     iteration #  6     ecut=    25.00 Ry     beta=0.70
     Davidson diagonalization with overlap
     ethr =  3.31E-08,  avg # of iterations =  1.3

     total cpu time spent up to now is        1.0 secs

     total energy              =     -25.40166311 Ry
     Harris-Foulkes estimate   =     -25.40166403 Ry
     estimated scf accuracy    <       0.00000165 Ry

     iteration #  7     ecut=    25.00 Ry     beta=0.70
     Davidson diagonalization with overlap
     ethr =  1.65E-08,  avg # of iterations =  2.0

     total cpu time spent up to now is        1.1 secs

     End of self-consistent calculation

          k = 0.0000 0.0000 0.1633 (   531 PWs)   bands (ev):

    -5.9367   7.0816   8.2032   8.2032  11.2581  13.8349  14.3549  14.3549
    18.4338

          k =-0.1499-0.2597 0.2722 (   522 PWs)   bands (ev):

    -4.6714   2.2296   7.2109   8.1028  11.9027  13.1330  13.4309  16.5291
    18.1829

          k = 0.2998 0.5194-0.0544 (   520 PWs)   bands (ev):

    -2.8547  -0.9761   6.9923   7.9649  10.0196  13.7450  14.3128  16.3158
    20.8094

          k = 0.1499 0.2597 0.0544 (   525 PWs)   bands (ev):

    -5.2654   3.5948   7.0488   9.3439  10.6443  13.7211  15.1490  16.5919
    18.0162

          k =-0.2998 0.0000 0.3810 (   519 PWs)   bands (ev):

    -4.1323   3.3398   5.1342   6.0875   9.0187  12.9443  16.5258  17.0165
    19.1508

          k = 0.1499 0.7790 0.0544 (   510 PWs)   bands (ev):

    -2.0535  -0.0682   3.6590   5.6372  10.0896  14.2402  15.7481  18.9064
    20.2715

          k = 0.0000 0.5194 0.1633 (   521 PWs)   bands (ev):

    -3.3505   0.4108   4.7586   8.2224  10.1013  14.6106  15.9234  16.2642
    18.6226

          k = 0.5997 0.0000-0.2722 (   510 PWs)   bands (ev):

    -2.4289   0.5228   4.8732   5.4349   7.5395  12.5225  18.7269  20.6441
    21.7478

          k = 0.0000 0.0000 0.4899 (   522 PWs)   bands (ev):

    -4.3331   1.9783   8.1314   8.1314  10.5522  11.9552  11.9552  14.3777
    20.4088

          k = 0.4498 0.7790 0.1633 (   520 PWs)   bands (ev):

    -3.0367   1.3418   3.7838   6.7673   9.3544  14.2225  14.7923  17.7407
    20.1086

     the Fermi energy is    11.9331 ev

!    total energy              =     -25.40166334 Ry
     Harris-Foulkes estimate   =     -25.40166335 Ry
     estimated scf accuracy    <          3.5E-09 Ry

     The total energy is the sum of the following terms:

     one-electron contribution =       9.92258837 Ry
     hartree contribution      =       0.89911705 Ry
     xc contribution           =      -6.68611715 Ry
     ewald contribution        =     -29.53712410 Ry
     smearing contrib. (-TS)   =      -0.00012752 Ry

     convergence has been achieved in   7 iterations

     Forces acting on atoms (Ry/au):

     atom    1 type  1   force =    -0.00000000   -0.00000000   -0.13944697
     atom    2 type  1   force =     0.00000000    0.00000000    0.13944697

     Total force =     0.197208     Total SCF correction =     0.000043


     entering subroutine stress ...

          total   stress  (Ry/bohr**3)                   (kbar)     P=  444.95
   0.00333256   0.00000000  -0.00000000        490.24      0.00     -0.00
   0.00000000   0.00333256   0.00000000          0.00    490.24      0.00
  -0.00000000   0.00000000   0.00240895         -0.00      0.00    354.37


     number of scf cycles    =   2
     number of bfgs steps    =   1

     enthalpy old            =     -24.6061248127 Ry
     enthalpy new            =     -24.6821905093 Ry

     CASE: enthalpy_new < enthalpy_old

     new trust radius        =       0.3019825774 bohr
     new conv_thr            =       0.0000001000 Ry

     new unit-cell volume =    183.03239 a.u.^3 (    27.12260 Ang^3 )

CELL_PARAMETERS (alat=  7.01033623)
   0.539853285   0.000000000   0.701629980
  -0.269926504   0.467526613   0.701630008
  -0.269926504  -0.467526613   0.701630008

ATOMIC_POSITIONS (crystal)
As       0.263860680   0.263860662   0.263860662
As      -0.263860680  -0.263860662  -0.263860662



     Writing output data file pwscf.save
     NEW-OLD atomic charge density approx. for the potential
     extrapolated charge    8.43511, renormalised to   10.00000

     total cpu time spent up to now is        1.2 secs

     per-process dynamical memory:     4.0 Mb

     Self-consistent Calculation

     iteration #  1     ecut=    25.00 Ry     beta=0.70
     Davidson diagonalization with overlap
     ethr =  1.00E-06,  avg # of iterations =  7.1

     total cpu time spent up to now is        1.4 secs

     total energy              =     -25.34462266 Ry
     Harris-Foulkes estimate   =     -24.15513090 Ry
     estimated scf accuracy    <       0.01769358 Ry

     iteration #  2     ecut=    25.00 Ry     beta=0.70
     Davidson diagonalization with overlap
     ethr =  1.77E-04,  avg # of iterations =  2.1

     total cpu time spent up to now is        1.4 secs

     total energy              =     -25.35391728 Ry
     Harris-Foulkes estimate   =     -25.35520899 Ry
     estimated scf accuracy    <       0.00290919 Ry

     iteration #  3     ecut=    25.00 Ry     beta=0.70
     Davidson diagonalization with overlap
     ethr =  2.91E-05,  avg # of iterations =  1.1

     total cpu time spent up to now is        1.5 secs

     total energy              =     -25.35400443 Ry
     Harris-Foulkes estimate   =     -25.35412581 Ry
     estimated scf accuracy    <       0.00027641 Ry

     iteration #  4     ecut=    25.00 Ry     beta=0.70
     Davidson diagonalization with overlap
     ethr =  2.76E-06,  avg # of iterations =  2.1

     total cpu time spent up to now is        1.5 secs

     total energy              =     -25.35404464 Ry
     Harris-Foulkes estimate   =     -25.35405153 Ry
     estimated scf accuracy    <       0.00001379 Ry

     iteration #  5     ecut=    25.00 Ry     beta=0.70
     Davidson diagonalization with overlap
     ethr =  1.38E-07,  avg # of iterations =  1.7

     total cpu time spent up to now is        1.6 secs

     total energy              =     -25.35404565 Ry
     Harris-Foulkes estimate   =     -25.35404606 Ry
     estimated scf accuracy    <       0.00000073 Ry

     iteration #  6     ecut=    25.00 Ry     beta=0.70
     Davidson diagonalization with overlap
     ethr =  7.33E-09,  avg # of iterations =  2.5

     total cpu time spent up to now is        1.6 secs

     End of self-consistent calculation

          k = 0.0000-0.0000 0.1782 (   531 PWs)   bands (ev):

    -4.6205   9.9127  10.7891  10.7891  14.3256  17.6818  17.6818  17.9913
    19.7717

          k =-0.1544-0.2674 0.2969 (   522 PWs)   bands (ev):

    -3.1157   4.1035   9.8093  11.8604  14.1839  14.3308  16.3500  19.7371
    21.1375

          k = 0.3087 0.5347-0.0594 (   520 PWs)   bands (ev):

    -1.0933   0.6900   9.9551  10.4616  11.9453  15.7402  17.5258  19.6591
    24.8248

          k = 0.1544 0.2674 0.0594 (   525 PWs)   bands (ev):

    -3.9458   6.2431   9.4929  11.3903  13.3915  17.6839  18.5318  19.3202
    20.5553

          k =-0.3087-0.0000 0.4157 (   519 PWs)   bands (ev):

    -2.3093   5.6935   7.7050   8.0170   9.9729  16.1619  19.4721  20.3832
    20.8736

          k = 0.1544 0.8021 0.0594 (   510 PWs)   bands (ev):

     0.3806   1.7731   5.1133   7.3127  12.5987  16.6470  18.2783  23.1597
    23.6094

          k = 0.0000 0.5347 0.1782 (   521 PWs)   bands (ev):

    -1.7597   2.5261   7.2644   9.5065  13.4609  16.6332  19.1893  19.8719
    21.3139

          k = 0.6175 0.0000-0.2969 (   510 PWs)   bands (ev):

    -0.4672   3.6385   5.4660   7.3446   9.0994  15.9646  21.7301  22.8443
    25.5618

          k = 0.0000 0.0000 0.5345 (   522 PWs)   bands (ev):

    -2.1710   3.2605  10.8671  10.8671  13.5264  13.5264  13.8806  15.9385
    24.4487

          k = 0.4631 0.8021 0.1782 (   520 PWs)   bands (ev):

    -0.1117   2.1285   5.6223   9.0778  10.9317  16.1663  18.1828  21.5570
    22.8827

     the Fermi energy is    14.1988 ev

!    total energy              =     -25.35404584 Ry
     Harris-Foulkes estimate   =     -25.35404584 Ry
     estimated scf accuracy    <          6.2E-09 Ry

     The total energy is the sum of the following terms:

     one-electron contribution =      12.37621333 Ry
     hartree contribution      =       0.55960241 Ry
     xc contribution           =      -6.86701087 Ry
     ewald contribution        =     -31.42276484 Ry
     smearing contrib. (-TS)   =      -0.00008587 Ry

     convergence has been achieved in   6 iterations

     Forces acting on atoms (Ry/au):

     atom    1 type  1   force =    -0.00000000    0.00000000   -0.06407886
     atom    2 type  1   force =     0.00000000   -0.00000000    0.06407886

     Total force =     0.090621     Total SCF correction =     0.000068


     entering subroutine stress ...

          total   stress  (Ry/bohr**3)                   (kbar)     P=  681.17
   0.00460017   0.00000000  -0.00000000        676.71      0.00     -0.00
   0.00000000   0.00460017  -0.00000000          0.00    676.71     -0.00
  -0.00000000  -0.00000000   0.00469123         -0.00     -0.00    690.10


     number of scf cycles    =   3
     number of bfgs steps    =   2

     enthalpy old            =     -24.6821905093 Ry
     enthalpy new            =     -24.7319312685 Ry

     CASE: enthalpy_new < enthalpy_old

     new trust radius        =       0.0715169374 bohr
     new conv_thr            =       0.0000001000 Ry

     new unit-cell volume =    190.16954 a.u.^3 (    28.18022 Ang^3 )

CELL_PARAMETERS (alat=  7.01033623)
   0.546565965   0.000000000   0.711192968
  -0.273282854   0.473339964   0.711193003
  -0.273282854  -0.473339964   0.711193003

ATOMIC_POSITIONS (crystal)
As       0.259014043   0.259014023   0.259014023
As      -0.259014043  -0.259014023  -0.259014023



     Writing output data file pwscf.save
     NEW-OLD atomic charge density approx. for the potential
     extrapolated charge   10.37529, renormalised to   10.00000

     total cpu time spent up to now is        1.8 secs

     per-process dynamical memory:     4.0 Mb

     Self-consistent Calculation

     iteration #  1     ecut=    25.00 Ry     beta=0.70
     Davidson diagonalization with overlap
     ethr =  1.00E-06,  avg # of iterations =  6.6

     total cpu time spent up to now is        1.9 secs

     total energy              =     -25.38978292 Ry
     Harris-Foulkes estimate   =     -25.68130662 Ry
     estimated scf accuracy    <       0.00086564 Ry

     iteration #  2     ecut=    25.00 Ry     beta=0.70
     Davidson diagonalization with overlap
     ethr =  8.66E-06,  avg # of iterations =  2.0

     total cpu time spent up to now is        2.0 secs

     total energy              =     -25.39023677 Ry
     Harris-Foulkes estimate   =     -25.39031950 Ry
     estimated scf accuracy    <       0.00017491 Ry

     iteration #  3     ecut=    25.00 Ry     beta=0.70
     Davidson diagonalization with overlap
     ethr =  1.75E-06,  avg # of iterations =  1.2

     total cpu time spent up to now is        2.0 secs

     total energy              =     -25.39025208 Ry
     Harris-Foulkes estimate   =     -25.39025905 Ry
     estimated scf accuracy    <       0.00001725 Ry

     iteration #  4     ecut=    25.00 Ry     beta=0.70
     Davidson diagonalization with overlap
     ethr =  1.73E-07,  avg # of iterations =  1.2

     total cpu time spent up to now is        2.1 secs

     total energy              =     -25.39025372 Ry
     Harris-Foulkes estimate   =     -25.39025406 Ry
     estimated scf accuracy    <       0.00000077 Ry

     iteration #  5     ecut=    25.00 Ry     beta=0.70
     Davidson diagonalization with overlap
     ethr =  7.66E-09,  avg # of iterations =  3.0

     total cpu time spent up to now is        2.1 secs

     End of self-consistent calculation

          k = 0.0000 0.0000 0.1758 (   531 PWs)   bands (ev):

    -4.8196   9.0295  10.2833  10.2833  13.3628  17.0777  17.0777  17.4618
    18.9631

          k =-0.1525-0.2641 0.2929 (   522 PWs)   bands (ev):

    -3.3505   3.6002   9.2269  11.6232  13.1496  13.5912  15.4244  19.1739
    20.0849

          k = 0.3049 0.5282-0.0586 (   520 PWs)   bands (ev):

    -1.3710   0.3039   9.5726   9.9079  11.2119  14.8605  16.7333  18.6007
    23.9921

          k = 0.1525 0.2641 0.0586 (   525 PWs)   bands (ev):

    -4.1628   5.6774   9.0498  10.6817  12.7385  16.7396  17.9221  18.4118
    19.3749

          k =-0.3049-0.0000 0.4101 (   519 PWs)   bands (ev):

    -2.5648   4.9817   7.4065   7.6121   9.1986  15.7759  18.6849  19.3939
    19.7777

          k = 0.1525 0.7922 0.0586 (   510 PWs)   bands (ev):

     0.0488   1.3381   4.7639   6.7971  11.8956  15.8353  17.7092  22.2406
    22.5662

          k = 0.0000 0.5282 0.1758 (   521 PWs)   bands (ev):

    -2.0357   2.0868   6.9290   8.8409  12.8265  15.6359  18.5853  18.9900
    20.3178

          k = 0.6099 0.0000-0.2929 (   510 PWs)   bands (ev):

    -0.8094   3.4112   4.7274   6.9660   8.4736  15.5449  20.7292  21.5692
    24.3837

          k = 0.0000 0.0000 0.5273 (   522 PWs)   bands (ev):

    -2.4033   2.6570  10.4491  10.4491  12.8314  12.8314  13.2318  14.9816
    23.5666

          k = 0.4574 0.7922 0.1758 (   520 PWs)   bands (ev):

    -0.3052   1.4324   5.3213   8.6728  10.2600  15.3864  17.3844  20.6462
    22.2408

     the Fermi energy is    13.1970 ev

!    total energy              =     -25.39025410 Ry
     Harris-Foulkes estimate   =     -25.39025414 Ry
     estimated scf accuracy    <       0.00000008 Ry

     The total energy is the sum of the following terms:

     one-electron contribution =      11.89666257 Ry
     hartree contribution      =       0.57913987 Ry
     xc contribution           =      -6.79960972 Ry
     ewald contribution        =     -31.06642968 Ry
     smearing contrib. (-TS)   =      -0.00001714 Ry

     convergence has been achieved in   5 iterations

     Forces acting on atoms (Ry/au):

     atom    1 type  1   force =    -0.00000000   -0.00000000   -0.04260454
     atom    2 type  1   force =     0.00000000    0.00000000    0.04260454

     Total force =     0.060252     Total SCF correction =     0.000072


     entering subroutine stress ...

          total   stress  (Ry/bohr**3)                   (kbar)     P=  525.69
   0.00338922   0.00000000  -0.00000000        498.57      0.00     -0.00
   0.00000000   0.00338922   0.00000000          0.00    498.57      0.00
  -0.00000000   0.00000000   0.00394221         -0.00      0.00    579.92


     number of scf cycles    =   4
     number of bfgs steps    =   3

     enthalpy old            =     -24.7319312685 Ry
     enthalpy new            =     -24.7438808584 Ry

     CASE: enthalpy_new < enthalpy_old

     new trust radius        =       0.1594817191 bohr
     new conv_thr            =       0.0000001000 Ry

     new unit-cell volume =    191.29724 a.u.^3 (    28.34733 Ang^3 )

CELL_PARAMETERS (alat=  7.01033623)
   0.545420483   0.000000000   0.718418437
  -0.272710138   0.472347947   0.718418488
  -0.272710138  -0.472347947   0.718418488

ATOMIC_POSITIONS (crystal)
As       0.248351442   0.248351415   0.248351415
As      -0.248351442  -0.248351415  -0.248351415



     Writing output data file pwscf.save
     NEW-OLD atomic charge density approx. for the potential
     extrapolated charge   10.05895, renormalised to   10.00000

     total cpu time spent up to now is        2.3 secs

     per-process dynamical memory:     4.0 Mb

     Self-consistent Calculation

     iteration #  1     ecut=    25.00 Ry     beta=0.70
     Davidson diagonalization with overlap
     ethr =  1.00E-06,  avg # of iterations =  8.2

     total cpu time spent up to now is        2.4 secs

     total energy              =     -25.40056400 Ry
     Harris-Foulkes estimate   =     -25.44621861 Ry
     estimated scf accuracy    <       0.00123913 Ry

     iteration #  2     ecut=    25.00 Ry     beta=0.70
     Davidson diagonalization with overlap
     ethr =  1.24E-05,  avg # of iterations =  1.0

     total cpu time spent up to now is        2.5 secs

     total energy              =     -25.40056625 Ry
     Harris-Foulkes estimate   =     -25.40057989 Ry
     estimated scf accuracy    <       0.00009330 Ry

     iteration #  3     ecut=    25.00 Ry     beta=0.70
     Davidson diagonalization with overlap
     ethr =  9.33E-07,  avg # of iterations =  1.0

     total cpu time spent up to now is        2.5 secs

     End of self-consistent calculation

          k = 0.0000 0.0000 0.1740 (   531 PWs)   bands (ev):

    -4.8318   8.7467  10.3306  10.3306  13.2307  17.0756  17.0756  17.7074
    18.7937

          k =-0.1528-0.2646 0.2900 (   522 PWs)   bands (ev):

    -3.3640   3.5636   9.0036  12.1626  12.4608  13.5142  15.3437  19.3070
    19.7052

          k = 0.3056 0.5293-0.0580 (   520 PWs)   bands (ev):

    -1.3478   0.2518   9.6438   9.7348  11.0826  14.5837  16.6509  18.1935
    23.6364

          k = 0.1528 0.2646 0.0580 (   525 PWs)   bands (ev):

    -4.1676   5.6542   9.0902  10.5006  12.5991  16.5051  18.1077  18.1542
    18.7750

          k =-0.3056-0.0000 0.4060 (   519 PWs)   bands (ev):

    -2.5855   4.7716   7.5482   7.6661   8.8890  15.8389  18.6435  19.3143
    19.6548

          k = 0.1528 0.7939 0.0580 (   510 PWs)   bands (ev):

     0.0526   1.3046   4.7338   6.6132  11.7698  15.7594  17.7051  22.0361
    22.5997

          k = 0.0000 0.5293 0.1740 (   521 PWs)   bands (ev):

    -2.0354   2.0718   6.9590   8.6049  12.7336  15.2402  18.4935  18.9905
    20.1222

          k = 0.6111 0.0000-0.2900 (   510 PWs)   bands (ev):

    -0.8217   3.6612   4.2755   7.0151   8.3195  15.4965  20.5150  21.2608
    24.2174

          k = 0.0000 0.0000 0.5220 (   522 PWs)   bands (ev):

    -2.4215   2.3810  10.5762  10.5762  12.7340  12.7340  13.4276  14.8290
    23.4482

          k = 0.4584 0.7939 0.1740 (   520 PWs)   bands (ev):

    -0.1899   1.0666   5.3563   8.7329  10.2029  15.3110  17.4882  20.5958
    22.2534

     the Fermi energy is    12.7909 ev

!    total energy              =     -25.40056807 Ry
     Harris-Foulkes estimate   =     -25.40056807 Ry
     estimated scf accuracy    <       0.00000005 Ry

     The total energy is the sum of the following terms:

     one-electron contribution =      11.84362642 Ry
     hartree contribution      =       0.57406246 Ry
     xc contribution           =      -6.78688493 Ry
     ewald contribution        =     -31.03144500 Ry
     smearing contrib. (-TS)   =       0.00007297 Ry

     convergence has been achieved in   3 iterations

     Forces acting on atoms (Ry/au):

     atom    1 type  1   force =     0.00000000    0.00000000    0.00677018
     atom    2 type  1   force =    -0.00000000   -0.00000000   -0.00677018

     Total force =     0.009574     Total SCF correction =     0.000014


     entering subroutine stress ...

          total   stress  (Ry/bohr**3)                   (kbar)     P=  493.65
   0.00317014   0.00000000  -0.00000000        466.34      0.00     -0.00
   0.00000000   0.00317014   0.00000000          0.00    466.34      0.00
  -0.00000000   0.00000000   0.00372693         -0.00      0.00    548.25


     number of scf cycles    =   5
     number of bfgs steps    =   4

     enthalpy old            =     -24.7438808584 Ry
     enthalpy new            =     -24.7503618492 Ry

     CASE: enthalpy_new < enthalpy_old

     new trust radius        =       0.0300917607 bohr
     new conv_thr            =       0.0000000677 Ry

     new unit-cell volume =    192.14547 a.u.^3 (    28.47302 Ang^3 )

CELL_PARAMETERS (alat=  7.01033623)
   0.543679201   0.000000000   0.726233649
  -0.271839499   0.470839952   0.726233700
  -0.271839499  -0.470839952   0.726233700

ATOMIC_POSITIONS (crystal)
As       0.249400443   0.249400416   0.249400416
As      -0.249400443  -0.249400416  -0.249400416



     Writing output data file pwscf.save
     NEW-OLD atomic charge density approx. for the potential
     extrapolated charge   10.04414, renormalised to   10.00000

     total cpu time spent up to now is        2.6 secs

     per-process dynamical memory:     4.0 Mb

     Self-consistent Calculation

     iteration #  1     ecut=    25.00 Ry     beta=0.70
     Davidson diagonalization with overlap
     ethr =  1.00E-06,  avg # of iterations =  4.3

     total cpu time spent up to now is        2.7 secs

     total energy              =     -25.40449712 Ry
     Harris-Foulkes estimate   =     -25.43845517 Ry
     estimated scf accuracy    <       0.00001709 Ry

     iteration #  2     ecut=    25.00 Ry     beta=0.70
     Davidson diagonalization with overlap
     ethr =  1.71E-07,  avg # of iterations =  2.0

     total cpu time spent up to now is        2.8 secs

     total energy              =     -25.40450113 Ry
     Harris-Foulkes estimate   =     -25.40450171 Ry
     estimated scf accuracy    <       0.00000219 Ry

     iteration #  3     ecut=    25.00 Ry     beta=0.70
     Davidson diagonalization with overlap
     ethr =  2.19E-08,  avg # of iterations =  1.1

     total cpu time spent up to now is        2.9 secs

     total energy              =     -25.40450119 Ry
     Harris-Foulkes estimate   =     -25.40450120 Ry
     estimated scf accuracy    <       0.00000008 Ry

     iteration #  4     ecut=    25.00 Ry     beta=0.70
     Davidson diagonalization with overlap
     ethr =  7.71E-10,  avg # of iterations =  2.4

     total cpu time spent up to now is        2.9 secs

     End of self-consistent calculation

          k = 0.0000 0.0000 0.1721 (   531 PWs)   bands (ev):

    -4.8665   8.5288  10.3517  10.3517  13.1615  16.9943  16.9943  17.6986
    18.7884

          k =-0.1533-0.2655 0.2869 (   522 PWs)   bands (ev):

    -3.4046   3.5451   8.7875  12.2033  12.3320  13.4879  15.2899  19.3430
    19.4698

          k = 0.3066 0.5310-0.0574 (   520 PWs)   bands (ev):

    -1.3585   0.2084   9.5428   9.6237  11.0488  14.4663  16.5317  17.8815
    23.2310

          k = 0.1533 0.2655 0.0574 (   525 PWs)   bands (ev):

    -4.1916   5.6199   9.0986  10.3781  12.4707  16.3517  17.8870  17.9835
    18.6264

          k =-0.3066-0.0000 0.4016 (   519 PWs)   bands (ev):

    -2.6430   4.6174   7.5250   7.7076   8.8085  15.7667  18.6250  19.3302
    19.6839

          k = 0.1533 0.7964 0.0574 (   510 PWs)   bands (ev):

    -0.0121   1.2866   4.7113   6.4742  11.6641  15.7435  17.7004  21.8637
    22.5463

          k = 0.0000 0.5310 0.1721 (   521 PWs)   bands (ev):

    -2.0563   2.0481   6.9015   8.4985  12.5668  15.0229  18.3780  18.9656
    20.0424

          k = 0.6131 0.0000-0.2869 (   510 PWs)   bands (ev):

    -0.8592   3.5861   4.1842   7.0471   8.2322  15.3379  20.3742  21.1694
    24.0936

          k = 0.0000 0.0000 0.5164 (   522 PWs)   bands (ev):

    -2.5054   2.2001  10.6229  10.6229  12.7423  12.7423  13.5066  14.8883
    23.2914

          k = 0.4598 0.7964 0.1721 (   520 PWs)   bands (ev):

    -0.2878   0.9405   5.3517   8.7561  10.2229  15.3160  17.5646  20.6014
    22.0306

     the Fermi energy is    12.7996 ev

!    total energy              =     -25.40450120 Ry
     Harris-Foulkes estimate   =     -25.40450120 Ry
     estimated scf accuracy    <          2.8E-09 Ry

     The total energy is the sum of the following terms:

     one-electron contribution =      11.77807228 Ry
     hartree contribution      =       0.58018122 Ry
     xc contribution           =      -6.78036620 Ry
     ewald contribution        =     -30.98240666 Ry
     smearing contrib. (-TS)   =       0.00001816 Ry

     convergence has been achieved in   4 iterations

     Forces acting on atoms (Ry/au):

     atom    1 type  1   force =     0.00000000    0.00000000    0.00256118
     atom    2 type  1   force =    -0.00000000   -0.00000000   -0.00256118

     Total force =     0.003622     Total SCF correction =     0.000003


     entering subroutine stress ...

          total   stress  (Ry/bohr**3)                   (kbar)     P=  481.28
   0.00311919  -0.00000000  -0.00000000        458.85     -0.00     -0.00
   0.00000000   0.00311919   0.00000000          0.00    458.85      0.00
  -0.00000000   0.00000000   0.00357667         -0.00      0.00    526.15


     number of scf cycles    =   6
     number of bfgs steps    =   5

     enthalpy old            =     -24.7503618492 Ry
     enthalpy new            =     -24.7514118998 Ry

     CASE: enthalpy_new < enthalpy_old

     new trust radius        =       0.0447507878 bohr
     new conv_thr            =       0.0000000256 Ry

     new unit-cell volume =    192.25471 a.u.^3 (    28.48921 Ang^3 )

CELL_PARAMETERS (alat=  7.01033623)
   0.539496890   0.000000000   0.737956465
  -0.269748349   0.467217964   0.737956518
  -0.269748349  -0.467217964   0.737956518

ATOMIC_POSITIONS (crystal)
As       0.250170413   0.250170387   0.250170387
As      -0.250170413  -0.250170387  -0.250170387



     Writing output data file pwscf.save
     NEW-OLD atomic charge density approx. for the potential
     extrapolated charge   10.00568, renormalised to   10.00000

     total cpu time spent up to now is        3.0 secs

     per-process dynamical memory:     4.0 Mb

     Self-consistent Calculation

     iteration #  1     ecut=    25.00 Ry     beta=0.70
     Davidson diagonalization with overlap
     ethr =  1.00E-06,  avg # of iterations =  4.2

     total cpu time spent up to now is        3.1 secs

     total energy              =     -25.40597020 Ry
     Harris-Foulkes estimate   =     -25.41033473 Ry
     estimated scf accuracy    <       0.00001122 Ry

     iteration #  2     ecut=    25.00 Ry     beta=0.70
     Davidson diagonalization with overlap
     ethr =  1.12E-07,  avg # of iterations =  1.0

     total cpu time spent up to now is        3.2 secs

     total energy              =     -25.40597042 Ry
     Harris-Foulkes estimate   =     -25.40597039 Ry
     estimated scf accuracy    <       0.00000094 Ry

     iteration #  3     ecut=    25.00 Ry     beta=0.70
     Davidson diagonalization with overlap
     ethr =  9.40E-09,  avg # of iterations =  1.0

     total cpu time spent up to now is        3.2 secs

     End of self-consistent calculation

          k = 0.0000 0.0000 0.1694 (   531 PWs)   bands (ev):

    -4.8827   8.2825  10.4973  10.4973  13.2209  16.9956  16.9956  17.8265
    18.9036

          k =-0.1545-0.2675 0.2823 (   522 PWs)   bands (ev):

    -3.4228   3.6055   8.5291  12.2882  12.3369  13.5757  15.3556  19.2396
    19.5403

          k = 0.3089 0.5351-0.0565 (   520 PWs)   bands (ev):

    -1.3155   0.2101   9.3242   9.6855  11.1080  14.4065  16.4870  17.5161
    22.7080

          k = 0.1545 0.2675 0.0565 (   525 PWs)   bands (ev):

    -4.1863   5.6767   9.2111  10.2675  12.3755  16.2372  17.6073  17.8517
    18.5780

          k =-0.3089 0.0000 0.3952 (   519 PWs)   bands (ev):

    -2.6842   4.4649   7.5660   7.8650   8.8003  15.7442  18.7407  19.5234
    19.9121

          k = 0.1545 0.8026 0.0565 (   510 PWs)   bands (ev):

    -0.0447   1.3387   4.7415   6.3291  11.6043  15.8497  17.8183  21.7249
    22.6236

          k = 0.0000 0.5351 0.1694 (   521 PWs)   bands (ev):

    -2.0331   2.0969   6.8841   8.4243  12.3911  14.8022  18.3335  19.0720
    20.0823

          k = 0.6179-0.0000-0.2823 (   510 PWs)   bands (ev):

    -0.8505   3.5384   4.1258   7.1839   8.1832  15.1807  20.2920  21.1871
    24.0480

          k = 0.0000 0.0000 0.5082 (   522 PWs)   bands (ev):

    -2.5921   1.9894  10.8026  10.8026  12.8770  12.8770  13.7794  15.1460
    23.1868

          k = 0.4634 0.8026 0.1694 (   520 PWs)   bands (ev):

    -0.3923   0.8260   5.4166   8.8866  10.3714  15.4565  17.8495  20.7274
    21.8375

     the Fermi energy is    12.9342 ev

!    total energy              =     -25.40597044 Ry
     Harris-Foulkes estimate   =     -25.40597044 Ry
     estimated scf accuracy    <          8.6E-10 Ry

     The total energy is the sum of the following terms:

     one-electron contribution =      11.76269916 Ry
     hartree contribution      =       0.58316444 Ry
     xc contribution           =      -6.78029694 Ry
     ewald contribution        =     -30.97155522 Ry
     smearing contrib. (-TS)   =       0.00001812 Ry

     convergence has been achieved in   3 iterations

     Forces acting on atoms (Ry/au):

     atom    1 type  1   force =    -0.00000000   -0.00000000   -0.00068727
     atom    2 type  1   force =     0.00000000    0.00000000    0.00068727

     Total force =     0.000972     Total SCF correction =     0.000001


     entering subroutine stress ...

          total   stress  (Ry/bohr**3)                   (kbar)     P=  478.87
   0.00317187  -0.00000000  -0.00000000        466.60     -0.00     -0.00
  -0.00000000   0.00317187   0.00000000         -0.00    466.60      0.00
  -0.00000000   0.00000000   0.00342206         -0.00      0.00    503.40


     number of scf cycles    =   7
     number of bfgs steps    =   6

     enthalpy old            =     -24.7514118998 Ry
     enthalpy new            =     -24.7525098485 Ry

     CASE: enthalpy_new < enthalpy_old

     new trust radius        =       0.0461567694 bohr
     new conv_thr            =       0.0000000069 Ry

     new unit-cell volume =    191.27556 a.u.^3 (    28.34411 Ang^3 )

CELL_PARAMETERS (alat=  7.01033623)
   0.533698113   0.000000000   0.750239271
  -0.266848970   0.462196075   0.750239328
  -0.266848970  -0.462196075   0.750239328

ATOMIC_POSITIONS (crystal)
As       0.250363421   0.250363395   0.250363395
As      -0.250363421  -0.250363395  -0.250363395



     Writing output data file pwscf.save
     NEW-OLD atomic charge density approx. for the potential
     extrapolated charge    9.94881, renormalised to   10.00000

     total cpu time spent up to now is        3.4 secs

     per-process dynamical memory:     4.0 Mb

     Self-consistent Calculation

     iteration #  1     ecut=    25.00 Ry     beta=0.70
     Davidson diagonalization with overlap
     ethr =  1.00E-06,  avg # of iterations =  4.9

     Threshold (ethr) on eigenvalues was too large:
     Diagonalizing with lowered threshold

     Davidson diagonalization with overlap
     ethr =  6.58E-08,  avg # of iterations =  1.0

     total cpu time spent up to now is        3.5 secs

     total energy              =     -25.40307919 Ry
     Harris-Foulkes estimate   =     -25.36369126 Ry
     estimated scf accuracy    <       0.00000659 Ry

     iteration #  2     ecut=    25.00 Ry     beta=0.70
     Davidson diagonalization with overlap
     ethr =  6.59E-08,  avg # of iterations =  2.3

     total cpu time spent up to now is        3.6 secs

     total energy              =     -25.40308421 Ry
     Harris-Foulkes estimate   =     -25.40308470 Ry
     estimated scf accuracy    <       0.00000195 Ry

     iteration #  3     ecut=    25.00 Ry     beta=0.70
     Davidson diagonalization with overlap
     ethr =  1.95E-08,  avg # of iterations =  1.0

     total cpu time spent up to now is        3.6 secs

     total energy              =     -25.40308422 Ry
     Harris-Foulkes estimate   =     -25.40308427 Ry
     estimated scf accuracy    <       0.00000026 Ry

     iteration #  4     ecut=    25.00 Ry     beta=0.70
     Davidson diagonalization with overlap
     ethr =  2.60E-09,  avg # of iterations =  1.9

     total cpu time spent up to now is        3.7 secs

     total energy              =     -25.40308424 Ry
     Harris-Foulkes estimate   =     -25.40308425 Ry
     estimated scf accuracy    <          7.3E-09 Ry

     iteration #  5     ecut=    25.00 Ry     beta=0.70
     Davidson diagonalization with overlap
     ethr =  7.29E-11,  avg # of iterations =  2.5

     total cpu time spent up to now is        3.8 secs

     End of self-consistent calculation

          k = 0.0000 0.0000 0.1666 (   531 PWs)   bands (ev):

    -4.8636   8.0799  10.7662  10.7662  13.4441  17.1225  17.1225  18.1098
    18.8113

          k =-0.1561-0.2704 0.2777 (   522 PWs)   bands (ev):

    -3.3985   3.7513   8.3248  12.4350  12.5025  13.7901  15.5514  19.1080
    19.9052

          k = 0.3123 0.5409-0.0555 (   520 PWs)   bands (ev):

    -1.2105   0.2778   9.1638   9.8465  11.2699  14.4525  16.5695  17.2221
    22.2438

          k = 0.1561 0.2704 0.0555 (   525 PWs)   bands (ev):

    -4.1394   5.8429   9.4311  10.2058  12.3718  16.1935  17.3910  17.8331
    18.6685

          k =-0.3123 0.0000 0.3888 (   519 PWs)   bands (ev):

    -2.6816   4.3686   7.6917   8.1262   8.9022  15.8132  18.9999  19.8819
    20.3164

          k = 0.1561 0.8113 0.0555 (   510 PWs)   bands (ev):

    -0.0131   1.4701   4.8368   6.2387  11.6308  16.0753  18.0746  21.6695
    22.6826

          k = 0.0000 0.5409 0.1666 (   521 PWs)   bands (ev):

    -1.9538   2.2321   6.9364   8.4262  12.2692  14.6640  18.4169  19.3178
    20.2740

          k = 0.6246-0.0000-0.2777 (   510 PWs)   bands (ev):

    -0.7759   3.5677   4.1210   7.4172   8.2074  15.1073  20.3183  21.3314
    24.0892

          k = 0.0000 0.0000 0.4998 (   522 PWs)   bands (ev):

    -2.6419   1.8225  11.1041  11.1041  13.1359  13.1359  14.2246  15.5724
    23.1934

          k = 0.4684 0.8113 0.1666 (   520 PWs)   bands (ev):

    -0.4513   0.7658   5.5612   9.1208  10.6405  15.7281  18.3114  20.8758
    21.8749

     the Fermi energy is    13.1932 ev

!    total energy              =     -25.40308424 Ry
     Harris-Foulkes estimate   =     -25.40308424 Ry
     estimated scf accuracy    <          7.6E-10 Ry

     The total energy is the sum of the following terms:

     one-electron contribution =      11.82827933 Ry
     hartree contribution      =       0.57926160 Ry
     xc contribution           =      -6.78896647 Ry
     ewald contribution        =     -31.02167683 Ry
     smearing contrib. (-TS)   =       0.00001812 Ry

     convergence has been achieved in   5 iterations

     Forces acting on atoms (Ry/au):

     atom    1 type  1   force =    -0.00000000   -0.00000000   -0.00156756
     atom    2 type  1   force =     0.00000000    0.00000000    0.00156756

     Total force =     0.002217     Total SCF correction =     0.000001


     entering subroutine stress ...

          total   stress  (Ry/bohr**3)                   (kbar)     P=  492.32
   0.00336751  -0.00000000  -0.00000000        495.38     -0.00     -0.00
  -0.00000000   0.00336751   0.00000000         -0.00    495.38      0.00
  -0.00000000   0.00000000   0.00330512         -0.00      0.00    486.20


     number of scf cycles    =   8
     number of bfgs steps    =   7

     enthalpy old            =     -24.7525098485 Ry
     enthalpy new            =     -24.7529517117 Ry

     CASE: enthalpy_new < enthalpy_old

     new trust radius        =       0.0103548884 bohr
     new conv_thr            =       0.0000000157 Ry

     new unit-cell volume =    190.97724 a.u.^3 (    28.29991 Ang^3 )

CELL_PARAMETERS (alat=  7.01033623)
   0.534282757   0.000000000   0.747430699
  -0.267141292   0.462702391   0.747430756
  -0.267141292  -0.462702391   0.747430756

ATOMIC_POSITIONS (crystal)
As       0.250108845   0.250108819   0.250108819
As      -0.250108845  -0.250108819  -0.250108819



     Writing output data file pwscf.save
     NEW-OLD atomic charge density approx. for the potential
     extrapolated charge    9.98438, renormalised to   10.00000

     total cpu time spent up to now is        3.9 secs

     per-process dynamical memory:     4.0 Mb

     Self-consistent Calculation

     iteration #  1     ecut=    25.00 Ry     beta=0.70
     Davidson diagonalization with overlap
     ethr =  1.00E-06,  avg # of iterations =  3.5

     Threshold (ethr) on eigenvalues was too large:
     Diagonalizing with lowered threshold

     Davidson diagonalization with overlap
     ethr =  1.42E-08,  avg # of iterations =  1.3

     total cpu time spent up to now is        4.0 secs

     total energy              =     -25.40211647 Ry
     Harris-Foulkes estimate   =     -25.39008149 Ry
     estimated scf accuracy    <       0.00000143 Ry

     iteration #  2     ecut=    25.00 Ry     beta=0.70
     Davidson diagonalization with overlap
     ethr =  1.43E-08,  avg # of iterations =  2.0

     total cpu time spent up to now is        4.1 secs

     total energy              =     -25.40211705 Ry
     Harris-Foulkes estimate   =     -25.40211710 Ry
     estimated scf accuracy    <       0.00000019 Ry

     iteration #  3     ecut=    25.00 Ry     beta=0.70
     Davidson diagonalization with overlap
     ethr =  1.86E-09,  avg # of iterations =  1.0

     total cpu time spent up to now is        4.1 secs

     End of self-consistent calculation

          k = 0.0000 0.0000 0.1672 (   531 PWs)   bands (ev):

    -4.8518   8.1642  10.7572  10.7572  13.4691  17.1492  17.1492  18.1168
    18.8794

          k =-0.1560-0.2702 0.2787 (   522 PWs)   bands (ev):

    -3.3849   3.7609   8.3927  12.4715  12.4917  13.7977  15.5789  19.1891
    19.8847

          k = 0.3119 0.5403-0.0557 (   520 PWs)   bands (ev):

    -1.2067   0.2914   9.2265   9.8523  11.2835  14.4883  16.6104  17.3304
    22.3775

          k = 0.1560 0.2702 0.0557 (   525 PWs)   bands (ev):

    -4.1312   5.8541   9.4265  10.2598  12.4128  16.2678  17.4702  17.8871
    18.7085

          k =-0.3119 0.0000 0.3902 (   519 PWs)   bands (ev):

    -2.6623   4.4257   7.7009   8.1107   8.9200  15.8344  19.0085  19.8789
    20.3153

          k = 0.1560 0.8105 0.0557 (   510 PWs)   bands (ev):

     0.0087   1.4772   4.8432   6.2813  11.6710  16.0886  18.0670  21.7470
    22.7645

          k = 0.0000 0.5403 0.1672 (   521 PWs)   bands (ev):

    -1.9468   2.2398   6.9559   8.4582  12.3379  14.7356  18.4498  19.3313
    20.2999

          k = 0.6239-0.0000-0.2787 (   510 PWs)   bands (ev):

    -0.7634   3.6008   4.1428   7.4050   8.2401  15.1515  20.3745  21.3738
    24.1631

          k = 0.0000 0.0000 0.5017 (   522 PWs)   bands (ev):

    -2.6136   1.8813  11.0884  11.0884  13.1304  13.1304  14.1994  15.5499
    23.2541

          k = 0.4679 0.8105 0.1672 (   520 PWs)   bands (ev):

    -0.4160   0.8052   5.5600   9.1118  10.6340  15.7290  18.2919  20.9141
    21.9166

     the Fermi energy is    13.4118 ev

!    total energy              =     -25.40211705 Ry
     Harris-Foulkes estimate   =     -25.40211706 Ry
     estimated scf accuracy    <       0.00000001 Ry

     The total energy is the sum of the following terms:

     one-electron contribution =      11.84966694 Ry
     hartree contribution      =       0.57781120 Ry
     xc contribution           =      -6.79152169 Ry
     ewald contribution        =     -31.03808256 Ry
     smearing contrib. (-TS)   =       0.00000906 Ry

     convergence has been achieved in   3 iterations

     Forces acting on atoms (Ry/au):

     atom    1 type  1   force =    -0.00000000   -0.00000000   -0.00047551
     atom    2 type  1   force =     0.00000000    0.00000000    0.00047551

     Total force =     0.000672     Total SCF correction =     0.000005


     entering subroutine stress ...

          total   stress  (Ry/bohr**3)                   (kbar)     P=  497.11
   0.00337896  -0.00000000  -0.00000000        497.06     -0.00     -0.00
  -0.00000000   0.00337896   0.00000000         -0.00    497.06      0.00
  -0.00000000   0.00000000   0.00337985         -0.00      0.00    497.19


     number of scf cycles    =   9
     number of bfgs steps    =   8

     enthalpy old            =     -24.7529517117 Ry
     enthalpy new            =     -24.7529985058 Ry

     CASE: enthalpy_new < enthalpy_old

     new trust radius        =       0.0016284285 bohr
     new conv_thr            =       0.0000000047 Ry

     new unit-cell volume =    190.80073 a.u.^3 (    28.27375 Ang^3 )

CELL_PARAMETERS (alat=  7.01033623)
   0.534114392   0.000000000   0.747210764
  -0.267057110   0.462556583   0.747210821
  -0.267057110  -0.462556583   0.747210821

ATOMIC_POSITIONS (crystal)
As       0.250005250   0.250005224   0.250005224
As      -0.250005250  -0.250005224  -0.250005224



     Writing output data file pwscf.save
     NEW-OLD atomic charge density approx. for the potential
     extrapolated charge    9.99075, renormalised to   10.00000

     total cpu time spent up to now is        4.3 secs

     per-process dynamical memory:     4.0 Mb

     Self-consistent Calculation

     iteration #  1     ecut=    25.00 Ry     beta=0.70
     Davidson diagonalization with overlap
     ethr =  1.00E-06,  avg # of iterations =  2.0

     Threshold (ethr) on eigenvalues was too large:
     Diagonalizing with lowered threshold

     Davidson diagonalization with overlap
     ethr =  2.58E-09,  avg # of iterations =  2.2

     total cpu time spent up to now is        4.4 secs

     total energy              =     -25.40151953 Ry
     Harris-Foulkes estimate   =     -25.39438833 Ry
     estimated scf accuracy    <       0.00000024 Ry

     iteration #  2     ecut=    25.00 Ry     beta=0.70
     Davidson diagonalization with overlap
     ethr =  2.42E-09,  avg # of iterations =  2.0

     total cpu time spent up to now is        4.4 secs

     total energy              =     -25.40151972 Ry
     Harris-Foulkes estimate   =     -25.40151974 Ry
     estimated scf accuracy    <       0.00000005 Ry

     iteration #  3     ecut=    25.00 Ry     beta=0.70
     Davidson diagonalization with overlap
     ethr =  5.07E-10,  avg # of iterations =  1.0

     total cpu time spent up to now is        4.5 secs

     total energy              =     -25.40151972 Ry
     Harris-Foulkes estimate   =     -25.40151972 Ry
     estimated scf accuracy    <          6.8E-09 Ry

     iteration #  4     ecut=    25.00 Ry     beta=0.70
     Davidson diagonalization with overlap
     ethr =  6.83E-11,  avg # of iterations =  1.7

     total cpu time spent up to now is        4.5 secs

     End of self-consistent calculation

          k = 0.0000 0.0000 0.1673 (   531 PWs)   bands (ev):

    -4.8461   8.1811  10.7720  10.7720  13.4934  17.1678  17.1678  18.1381
    18.8948

          k =-0.1560-0.2702 0.2788 (   522 PWs)   bands (ev):

    -3.3782   3.7740   8.4046  12.4945  12.4995  13.8150  15.6015  19.2103
    19.9026

          k = 0.3120 0.5405-0.0558 (   520 PWs)   bands (ev):

    -1.1983   0.3010   9.2393   9.8654  11.2993  14.5049  16.6311  17.3509
    22.3967

          k = 0.1560 0.2702 0.0558 (   525 PWs)   bands (ev):

    -4.1250   5.8693   9.4396  10.2749  12.4280  16.2906  17.4857  17.9063
    18.7297

          k =-0.3120 0.0000 0.3903 (   519 PWs)   bands (ev):

    -2.6550   4.4399   7.7128   8.1226   8.9341  15.8474  19.0290  19.9016
    20.3412

          k = 0.1560 0.8107 0.0558 (   510 PWs)   bands (ev):

     0.0188   1.4885   4.8521   6.2914  11.6874  16.1080  18.0822  21.7708
    22.7844

          k = 0.0000 0.5405 0.1673 (   521 PWs)   bands (ev):

    -1.9390   2.2517   6.9667   8.4705  12.3545  14.7531  18.4680  19.3525
    20.3225

          k = 0.6241-0.0000-0.2788 (   510 PWs)   bands (ev):

    -0.7537   3.6147   4.1510   7.4163   8.2537  15.1640  20.3965  21.3983
    24.1907

          k = 0.0000 0.0000 0.5019 (   522 PWs)   bands (ev):

    -2.6064   1.8921  11.1028  11.1028  13.1459  13.1459  14.2200  15.5703
    23.2767

          k = 0.4681 0.8107 0.1673 (   520 PWs)   bands (ev):

    -0.4070   0.8159   5.5696   9.1242  10.6496  15.7473  18.3153  20.9337
    21.9391

     the Fermi energy is    13.4361 ev

!    total energy              =     -25.40151972 Ry
     Harris-Foulkes estimate   =     -25.40151972 Ry
     estimated scf accuracy    <          9.9E-11 Ry

     The total energy is the sum of the following terms:

     one-electron contribution =      11.86219049 Ry
     hartree contribution      =       0.57699219 Ry
     xc contribution           =      -6.79305591 Ry
     ewald contribution        =     -31.04765555 Ry
     smearing contrib. (-TS)   =       0.00000906 Ry

     convergence has been achieved in   4 iterations

     Forces acting on atoms (Ry/au):

     atom    1 type  1   force =    -0.00000000   -0.00000000   -0.00002362
     atom    2 type  1   force =     0.00000000    0.00000000    0.00002362

     Total force =     0.000033     Total SCF correction =     0.000001


     entering subroutine stress ...

          total   stress  (Ry/bohr**3)                   (kbar)     P=  499.88
   0.00339772  -0.00000000  -0.00000000        499.82     -0.00     -0.00
  -0.00000000   0.00339772   0.00000000         -0.00    499.82      0.00
  -0.00000000   0.00000000   0.00339896         -0.00      0.00    500.00


     bfgs converged in  10 scf cycles and   9 bfgs steps
     (criteria: energy <  1.0E-05, force <  1.0E-04, cell <  5.0E-01)

     End of BFGS Geometry Optimization

     Final enthalpy =     -24.7530010959 Ry
Begin final coordinates
     new unit-cell volume =    190.80073 a.u.^3 (    28.27375 Ang^3 )

CELL_PARAMETERS (alat=  7.01033623)
   0.534114392   0.000000000   0.747210764
  -0.267057110   0.462556583   0.747210821
  -0.267057110  -0.462556583   0.747210821

ATOMIC_POSITIONS (crystal)
As       0.250005250   0.250005224   0.250005224
As      -0.250005250  -0.250005224  -0.250005224
End final coordinates



     A final scf calculation at the relaxed structure.
     The G-vectors are recalculated for the final unit cell
     Results may differ from those at the preceding step.
 
     Parallelization info
     --------------------
     sticks:   dense  smooth     PW     G-vecs:    dense   smooth      PW
     Min         143     143     46                 1610     1610     316
     Max         144     144     47                 1611     1611     317
     Sum         287     287     93                 3221     3221     633
 


     bravais-lattice index     =            0
     lattice parameter (alat)  =       7.0103  a.u.
     unit-cell volume          =     190.8007 (a.u.)^3
     number of atoms/cell      =            2
     number of atomic types    =            1
     number of electrons       =        10.00
     number of Kohn-Sham states=            9
     kinetic-energy cutoff     =      25.0000  Ry
     charge density cutoff     =     100.0000  Ry
     convergence threshold     =      4.7E-09
     mixing beta               =       0.7000
     number of iterations used =            8  plain     mixing
     Exchange-correlation      =  SLA  PZ   NOGX NOGC ( 1  1  0  0 0 0)

     celldm(1)=   7.010336  celldm(2)=   0.000000  celldm(3)=   0.000000
     celldm(4)=   0.000000  celldm(5)=   0.000000  celldm(6)=   0.000000

     crystal axes: (cart. coord. in units of alat)
               a(1) = (   0.534114   0.000000   0.747211 )  
               a(2) = (  -0.267057   0.462557   0.747211 )  
               a(3) = (  -0.267057  -0.462557   0.747211 )  

     reciprocal axes: (cart. coord. in units 2 pi/alat)
               b(1) = (  1.248172 -0.000000  0.446103 )  
               b(2) = ( -0.624086  1.080949  0.446104 )  
               b(3) = ( -0.624086 -1.080949  0.446104 )  


     PseudoPot. # 1 for As read from file:
     /home/nvarini/espresso_hdf5/espresso/pseudo/As.pz-bhs.UPF
     MD5 check sum: 451cd3365afcfc94d28b1934951c34a8
     Pseudo is Norm-conserving, Zval =  5.0
     Generated by new atomic code, or converted to UPF format
     Using radial grid of  525 points,  2 beta functions with: 
                l(1) =   0
                l(2) =   1

     atomic species   valence    mass     pseudopotential
        As             5.00    74.90000     As( 1.00)

     12 Sym. Ops., with inversion, found



   Cartesian axes

     site n.     atom                  positions (alat units)
         1           As  tau(   1) = (   0.0000001   0.0000000   0.5604198  )
         2           As  tau(   2) = (  -0.0000001  -0.0000000  -0.5604198  )

     number of k points=    10  Methfessel-Paxton smearing, width (Ry)=  0.0050
                       cart. coord. in units 2pi/alat
        k(    1) = (   0.0000000   0.0000000   0.1672888), wk =   0.0625000
        k(    2) = (  -0.1560215  -0.2702372   0.2788147), wk =   0.1875000
        k(    3) = (   0.3120430   0.5404744  -0.0557630), wk =   0.1875000
        k(    4) = (   0.1560215   0.2702372   0.0557629), wk =   0.1875000
        k(    5) = (  -0.3120430   0.0000000   0.3903406), wk =   0.1875000
        k(    6) = (   0.1560215   0.8107116   0.0557629), wk =   0.3750000
        k(    7) = (   0.0000000   0.5404744   0.1672888), wk =   0.3750000
        k(    8) = (   0.6240861  -0.0000000  -0.2788147), wk =   0.1875000
        k(    9) = (   0.0000000   0.0000000   0.5018664), wk =   0.0625000
        k(   10) = (   0.4680646   0.8107116   0.1672888), wk =   0.1875000

     Dense  grid:     3221 G-vectors     FFT dimensions: (  24,  24,  24)

     Estimated max dynamical RAM per process >       1.60Mb

     Estimated total allocated dynamical RAM >       3.20Mb

     Initial potential from superposition of free atoms

     starting charge    9.99960, renormalised to   10.00000
     Starting wfc are    8 randomized atomic wfcs +    1 random wfc

     Writing output data file pwscf.save

     total cpu time spent up to now is        4.7 secs

     per-process dynamical memory:     4.0 Mb

     Self-consistent Calculation

     iteration #  1     ecut=    25.00 Ry     beta=0.70
     Davidson diagonalization with overlap
     ethr =  1.00E-06,  avg # of iterations = 10.5

     total cpu time spent up to now is        4.9 secs

     total energy              =     -25.39786689 Ry
     Harris-Foulkes estimate   =     -25.40003423 Ry
     estimated scf accuracy    <       0.01490665 Ry

     iteration #  2     ecut=    25.00 Ry     beta=0.70
     Davidson diagonalization with overlap
     ethr =  1.49E-04,  avg # of iterations =  1.0

     total cpu time spent up to now is        4.9 secs

     total energy              =     -25.39784535 Ry
     Harris-Foulkes estimate   =     -25.39797997 Ry
     estimated scf accuracy    <       0.00110543 Ry

     iteration #  3     ecut=    25.00 Ry     beta=0.70
     Davidson diagonalization with overlap
     ethr =  1.11E-05,  avg # of iterations =  1.0

     total cpu time spent up to now is        5.0 secs

     total energy              =     -25.39785542 Ry
     Harris-Foulkes estimate   =     -25.39785588 Ry
     estimated scf accuracy    <       0.00000168 Ry

     iteration #  4     ecut=    25.00 Ry     beta=0.70
     Davidson diagonalization with overlap
     ethr =  1.68E-08,  avg # of iterations =  3.0

     total cpu time spent up to now is        5.0 secs

     total energy              =     -25.39785722 Ry
     Harris-Foulkes estimate   =     -25.39785728 Ry
     estimated scf accuracy    <       0.00000014 Ry

     iteration #  5     ecut=    25.00 Ry     beta=0.70
     Davidson diagonalization with overlap
     ethr =  1.38E-09,  avg # of iterations =  1.1

     total cpu time spent up to now is        5.1 secs

     End of self-consistent calculation

          k = 0.0000 0.0000 0.1673 (   396 PWs)   bands (ev):

    -4.8416   8.1939  10.7719  10.7719  13.5170  17.1699  17.1699  18.1434
    18.8985

          k =-0.1560-0.2702 0.2788 (   397 PWs)   bands (ev):

    -3.3733   3.7834   8.4062  12.4954  12.5006  13.8199  15.6147  19.2147
    19.9068

          k = 0.3120 0.5405-0.0558 (   401 PWs)   bands (ev):

    -1.1926   0.3077   9.2413   9.8657  11.3044  14.5061  16.6390  17.3573
    22.4005

          k = 0.1560 0.2702 0.0558 (   396 PWs)   bands (ev):

    -4.1204   5.8810   9.4401  10.2793  12.4303  16.3062  17.4907  17.9080
    18.7349

          k =-0.3120 0.0000 0.3903 (   407 PWs)   bands (ev):

    -2.6501   4.4490   7.7148   8.1227   8.9377  15.8498  19.0311  19.9058
    20.3500

          k = 0.1560 0.8107 0.0558 (   402 PWs)   bands (ev):

     0.0250   1.4953   4.8532   6.2924  11.6905  16.1113  18.0849  21.7739
    22.7875

          k = 0.0000 0.5405 0.1673 (   405 PWs)   bands (ev):

    -1.9338   2.2600   6.9679   8.4724  12.3581  14.7562  18.4721  19.3593
    20.3258

          k = 0.6241-0.0000-0.2788 (   410 PWs)   bands (ev):

    -0.7485   3.6228   4.1518   7.4163   8.2562  15.1665  20.3977  21.4013
    24.1949

          k = 0.0000 0.0000 0.5019 (   407 PWs)   bands (ev):

    -2.6012   1.8992  11.1034  11.1034  13.1470  13.1470  14.2305  15.5782
    23.2828

          k = 0.4681 0.8107 0.1673 (   403 PWs)   bands (ev):

    -0.4010   0.8234   5.5708   9.1247  10.6547  15.7486  18.3231  20.9367
    21.9428

     the Fermi energy is    13.4597 ev

!    total energy              =     -25.39785723 Ry
     Harris-Foulkes estimate   =     -25.39785723 Ry
     estimated scf accuracy    <          3.7E-09 Ry

     The total energy is the sum of the following terms:

     one-electron contribution =      11.86632667 Ry
     hartree contribution      =       0.57609037 Ry
     xc contribution           =      -6.79262774 Ry
     ewald contribution        =     -31.04765559 Ry
     smearing contrib. (-TS)   =       0.00000906 Ry

     convergence has been achieved in   5 iterations

     Forces acting on atoms (Ry/au):

     atom    1 type  1   force =    -0.00000000   -0.00000000   -0.00002281
     atom    2 type  1   force =     0.00000000    0.00000000    0.00002281

     Total force =     0.000032     Total SCF correction =     0.000000


     entering subroutine stress ...

          total   stress  (Ry/bohr**3)                   (kbar)     P=  501.88
   0.00341054  -0.00000000  -0.00000000        501.71     -0.00     -0.00
  -0.00000000   0.00341054   0.00000000         -0.00    501.71      0.00
  -0.00000000   0.00000000   0.00341401         -0.00      0.00    502.22


     Writing output data file pwscf.save
 
     init_run     :      0.11s CPU      0.12s WALL (       2 calls)
     electrons    :      3.61s CPU      3.67s WALL (      11 calls)
     update_pot   :      0.33s CPU      0.33s WALL (       9 calls)
     forces       :      0.16s CPU      0.16s WALL (      11 calls)
     stress       :      0.29s CPU      0.29s WALL (      11 calls)

     Called by init_run:
     wfcinit      :      0.03s CPU      0.04s WALL (       2 calls)
     potinit      :      0.02s CPU      0.02s WALL (       2 calls)

     Called by electrons:
     c_bands      :      3.04s CPU      3.10s WALL (      54 calls)
     sum_band     :      0.49s CPU      0.50s WALL (      54 calls)
     v_of_rho     :      0.04s CPU      0.04s WALL (      61 calls)
     mix_rho      :      0.01s CPU      0.01s WALL (      54 calls)

     Called by c_bands:
     init_us_2    :      0.07s CPU      0.07s WALL (    1320 calls)
     cegterg      :      2.96s CPU      3.02s WALL (     540 calls)

     Called by sum_band:

     Called by *egterg:
     h_psi        :      2.25s CPU      2.30s WALL (    1893 calls)
     g_psi        :      0.02s CPU      0.03s WALL (    1333 calls)
     cdiaghg      :      0.39s CPU      0.38s WALL (    1743 calls)

     Called by h_psi:
     h_psi:pot    :      2.24s CPU      2.29s WALL (    1893 calls)
     h_psi:calbec :      0.07s CPU      0.07s WALL (    1893 calls)
     add_vuspsi   :      0.04s CPU      0.04s WALL (    1893 calls)

     General routines
     calbec       :      0.09s CPU      0.08s WALL (    2443 calls)
     fft          :      0.03s CPU      0.03s WALL (     305 calls)
     fftw         :      2.29s CPU      2.29s WALL (   32034 calls)
 
     Parallel routines
     fft_scatter  :      0.59s CPU      0.59s WALL (   32339 calls)
 
     PWSCF        :     5.02s CPU         5.15s WALL

 
   This run was terminated on:  14:38:39  23Aug2016            

=------------------------------------------------------------------------------=
   JOB DONE.
=------------------------------------------------------------------------------=
