
     Program PWSCF v.5.4.0 (svn rev. 12496M) starts on 15Jun2016 at 11:26:14 

     This program is part of the open-source Quantum ESPRESSO suite
     for quantum simulation of materials; please cite
         "P. Giannozzi et al., J. Phys.:Condens. Matter 21 395502 (2009);
          URL http://www.quantum-espresso.org", 
     in publications or presentations arising from this work. More details at
     http://www.quantum-espresso.org/quote
 
           HOST :    @host@
           ARCH :    x86_64
             CC :    cc
            CPP :    cpp
            F90 :    mpif90
            F77 :    gfortran
         DFLAGS :    -D__GFORTRAN -D__STD_F95 -D__DFTI -D__MPI -D__PARA
      BLAS LIBS :    -lmkl_gf_lp64  -lmkl_sequential -lmkl_core
    LAPACK LIBS :    
       FFT LIBS :    
      MASS LIBS :    

     Parallel version (MPI), running on     2 processors
     R & G space division:  proc/nbgrp/npool/nimage =       2
     Waiting for input...
     Reading input from standard input
     Message from routine read_cards :
     DEPRECATED: no units specified in CELL_PARAMETERS card

     Current dimensions of program PWSCF are:
     Max number of different atomic species (ntypx) = 10
     Max number of k-points (npk) =  40000
     Max angular momentum in pseudopotentials (lmaxx) =  3

     Subspace diagonalization in iterative solution of the eigenvalue problem:
     a serial algorithm will be used

 
     Parallelization info
     --------------------
     sticks:   dense  smooth     PW     G-vecs:    dense   smooth      PW
     Min         174     174     60                 2079     2079     416
     Max         175     175     61                 2080     2080     417
     Sum         349     349    121                 4159     4159     833
 


     bravais-lattice index     =            0
     lattice parameter (alat)  =       7.0103  a.u.
     unit-cell volume          =     245.3705 (a.u.)^3
     number of atoms/cell      =            2
     number of atomic types    =            1
     number of electrons       =        10.00
     number of Kohn-Sham states=            9
     kinetic-energy cutoff     =      25.0000  Ry
     charge density cutoff     =     100.0000  Ry
     convergence threshold     =      1.0E-07
     mixing beta               =       0.7000
     number of iterations used =            8  plain     mixing
     Exchange-correlation      =  SLA  PZ   NOGX NOGC ( 1  1  0  0 0 0)
     nstep                     =           50


     celldm(1)=   7.010336  celldm(2)=   0.000000  celldm(3)=   0.000000
     celldm(4)=   0.000000  celldm(5)=   0.000000  celldm(6)=   0.000000

     crystal axes: (cart. coord. in units of alat)
               a(1) = (   0.580130   0.000000   0.814524 )  
               a(2) = (  -0.290065   0.502407   0.814524 )  
               a(3) = (  -0.290065  -0.502407   0.814524 )  

     reciprocal axes: (cart. coord. in units 2 pi/alat)
               b(1) = (  1.149169  0.000000  0.409237 )  
               b(2) = ( -0.574584  0.995209  0.409237 )  
               b(3) = ( -0.574584 -0.995209  0.409237 )  


     PseudoPot. # 1 for As read from file:
     /home/nvarini/espresso_hdf5/espresso/pseudo/As.pz-bhs.UPF
     MD5 check sum: 451cd3365afcfc94d28b1934951c34a8
     Pseudo is Norm-conserving, Zval =  5.0
     Generated by new atomic code, or converted to UPF format
     Using radial grid of  525 points,  2 beta functions with: 
                l(1) =   0
                l(2) =   1

     atomic species   valence    mass     pseudopotential
        As             5.00    74.90000     As( 1.00)

     12 Sym. Ops., with inversion, found



   Cartesian axes

     site n.     atom                  positions (alat units)
         1           As  tau(   1) = (   0.0000001   0.0000000   0.7086605  )
         2           As  tau(   2) = (  -0.0000001   0.0000000  -0.7086605  )

     number of k points=    10  Methfessel-Paxton smearing, width (Ry)=  0.0050
                       cart. coord. in units 2pi/alat
        k(    1) = (   0.0000000   0.0000000   0.1534638), wk =   0.0625000
        k(    2) = (  -0.1436461  -0.2488023   0.2557731), wk =   0.1875000
        k(    3) = (   0.2872922   0.4976046  -0.0511547), wk =   0.1875000
        k(    4) = (   0.1436461   0.2488023   0.0511546), wk =   0.1875000
        k(    5) = (  -0.2872922   0.0000000   0.3580823), wk =   0.1875000
        k(    6) = (   0.1436461   0.7464070   0.0511546), wk =   0.3750000
        k(    7) = (   0.0000000   0.4976046   0.1534638), wk =   0.3750000
        k(    8) = (   0.5745844   0.0000000  -0.2557731), wk =   0.1875000
        k(    9) = (   0.0000000   0.0000000   0.4603915), wk =   0.0625000
        k(   10) = (   0.4309383   0.7464070   0.1534638), wk =   0.1875000

     Dense  grid:     4159 G-vectors     FFT dimensions: (  24,  24,  24)

     Largest allocated arrays     est. size (Mb)     dimensions
        Kohn-Sham Wavefunctions         0.04 Mb     (     261,    9)
        NL pseudopotentials             0.03 Mb     (     261,    8)
        Each V/rho on FFT grid          0.11 Mb     (    6912)
        Each G-vector array             0.02 Mb     (    2080)
        G-vector shells                 0.02 Mb     (    2080)
     Largest temporary arrays     est. size (Mb)     dimensions
        Auxiliary wavefunctions         0.14 Mb     (     261,   36)
        Each subspace H/S matrix        0.02 Mb     (      36,   36)
        Each <psi_i|beta_j> matrix      0.00 Mb     (       8,    9)
        Arrays for rho mixing           0.84 Mb     (    6912,    8)

     Initial potential from superposition of free atoms

     starting charge    9.99960, renormalised to   10.00000
     Starting wfc are    8 randomized atomic wfcs +    1 random wfc

     total cpu time spent up to now is        0.1 secs

     per-process dynamical memory:     2.8 Mb

     Self-consistent Calculation

     iteration #  1     ecut=    25.00 Ry     beta=0.70
     Davidson diagonalization with overlap
     ethr =  1.00E-02,  avg # of iterations =  4.3

     Threshold (ethr) on eigenvalues was too large:
     Diagonalizing with lowered threshold

     Davidson diagonalization with overlap
     ethr =  1.54E-04,  avg # of iterations =  1.3

     total cpu time spent up to now is        0.2 secs

     total energy              =     -25.43995533 Ry
     Harris-Foulkes estimate   =     -25.44371111 Ry
     estimated scf accuracy    <       0.01555642 Ry

     iteration #  2     ecut=    25.00 Ry     beta=0.70
     Davidson diagonalization with overlap
     ethr =  1.56E-04,  avg # of iterations =  1.0

     total cpu time spent up to now is        0.3 secs

     total energy              =     -25.44007975 Ry
     Harris-Foulkes estimate   =     -25.44026241 Ry
     estimated scf accuracy    <       0.00088828 Ry

     iteration #  3     ecut=    25.00 Ry     beta=0.70
     Davidson diagonalization with overlap
     ethr =  8.88E-06,  avg # of iterations =  1.6

     total cpu time spent up to now is        0.3 secs

     total energy              =     -25.44011386 Ry
     Harris-Foulkes estimate   =     -25.44011521 Ry
     estimated scf accuracy    <       0.00000510 Ry

     iteration #  4     ecut=    25.00 Ry     beta=0.70
     Davidson diagonalization with overlap
     ethr =  5.10E-08,  avg # of iterations =  3.2

     total cpu time spent up to now is        0.4 secs

     total energy              =     -25.44012212 Ry
     Harris-Foulkes estimate   =     -25.44012250 Ry
     estimated scf accuracy    <       0.00000079 Ry

     iteration #  5     ecut=    25.00 Ry     beta=0.70
     Davidson diagonalization with overlap
     ethr =  7.94E-09,  avg # of iterations =  1.4

     total cpu time spent up to now is        0.4 secs

     End of self-consistent calculation

          k = 0.0000 0.0000 0.1535 (   531 PWs)   bands (ev):

    -6.9960   4.5196   5.9667   5.9667   8.4360  11.0403  11.7601  11.7601
    16.5646

          k =-0.1436-0.2488 0.2558 (   522 PWs)   bands (ev):

    -5.9250   0.3917   5.3512   5.6501   9.2996  10.5303  11.7005  13.5632
    15.7167

          k = 0.2873 0.4976-0.0512 (   520 PWs)   bands (ev):

    -4.3490  -2.4705   4.7883   6.1554   7.8795  10.8148  12.5848  13.8261
    17.7262

          k = 0.1436 0.2488 0.0512 (   525 PWs)   bands (ev):

    -6.3695   1.3042   4.9860   7.1720   8.5435  10.8049  12.4702  13.9612
    15.3511

          k =-0.2873 0.0000 0.3581 (   519 PWs)   bands (ev):

    -5.5427   1.1264   3.5658   4.2977   7.5158  10.4217  13.7076  13.7746
    16.9045

          k = 0.1436 0.7464 0.0512 (   510 PWs)   bands (ev):

    -3.8393  -1.8099   2.3270   4.2466   8.0538  11.6204  13.3234  15.7202
    17.3489

          k = 0.0000 0.4976 0.1535 (   521 PWs)   bands (ev):

    -4.7124  -1.4722   3.0016   6.6926   7.7777  12.3034  13.0675  13.4304
    16.0961

          k = 0.5746 0.0000-0.2558 (   510 PWs)   bands (ev):

    -4.0542  -1.5061   3.7084   3.7296   6.0242  10.0593  15.9112  17.7151
    18.4776

          k = 0.0000 0.0000 0.4604 (   522 PWs)   bands (ev):

    -5.8586   0.8360   5.8840   5.8840   7.4114  10.0627  10.0627  12.1191
    17.3944

          k = 0.4309 0.7464 0.1535 (   520 PWs)   bands (ev):

    -4.8493  -0.0499   2.4338   4.7831   7.5088  11.6828  12.0642  14.4760
    17.7700

     the Fermi energy is    10.0033 ev

!    total energy              =     -25.44012222 Ry
     Harris-Foulkes estimate   =     -25.44012223 Ry
     estimated scf accuracy    <       0.00000002 Ry

     The total energy is the sum of the following terms:

     one-electron contribution =       7.72810239 Ry
     hartree contribution      =       1.22166194 Ry
     xc contribution           =      -6.50440230 Ry
     ewald contribution        =     -27.88552965 Ry
     smearing contrib. (-TS)   =       0.00004540 Ry

     convergence has been achieved in   5 iterations

     Forces acting on atoms (Ry/au):

     atom    1 type  1   force =    -0.00000000    0.00000000   -0.12659946
     atom    2 type  1   force =     0.00000000   -0.00000000    0.12659946

     Total force =     0.179039     Total SCF correction =     0.000028


     entering subroutine stress ...

          total   stress  (Ry/bohr**3)                   (kbar)     P=  217.52
   0.00172377  -0.00000000  -0.00000000        253.58     -0.00     -0.00
   0.00000000   0.00172377   0.00000000          0.00    253.58      0.00
  -0.00000000  -0.00000000   0.00098857         -0.00     -0.00    145.42


     BFGS Geometry Optimization

     number of scf cycles    =   1
     number of bfgs steps    =   0

     enthalpy new            =     -25.4401222192 Ry

     new trust radius        =       0.1350084292 bohr
     new conv_thr            =       0.0000001000 Ry

     new unit-cell volume =    273.57233 a.u.^3 (    40.53924 Ang^3 )

CELL_PARAMETERS (alat=  7.01033623)
   0.605129827   0.000000000   0.834654525
  -0.302564724   0.524057754   0.834654531
  -0.302564724  -0.524057754   0.834654531

ATOMIC_POSITIONS (crystal)
As       0.282619607   0.282619602   0.282619602
As      -0.282619607  -0.282619602  -0.282619602



     Writing output data file pwscf.save
     NEW-OLD atomic charge density approx. for the potential
     extrapolated charge   11.03083, renormalised to   10.00000

     total cpu time spent up to now is        0.6 secs

     per-process dynamical memory:     3.9 Mb

     Self-consistent Calculation

     iteration #  1     ecut=    25.00 Ry     beta=0.70
     Davidson diagonalization with overlap
     ethr =  1.00E-06,  avg # of iterations =  5.9

     total cpu time spent up to now is        0.7 secs

     total energy              =     -25.47727509 Ry
     Harris-Foulkes estimate   =     -26.08207237 Ry
     estimated scf accuracy    <       0.00507673 Ry

     iteration #  2     ecut=    25.00 Ry     beta=0.70
     Davidson diagonalization with overlap
     ethr =  5.08E-05,  avg # of iterations =  3.1

     total cpu time spent up to now is        0.8 secs

     total energy              =     -25.48675525 Ry
     Harris-Foulkes estimate   =     -25.48847096 Ry
     estimated scf accuracy    <       0.00433283 Ry

     iteration #  3     ecut=    25.00 Ry     beta=0.70
     Davidson diagonalization with overlap
     ethr =  4.33E-05,  avg # of iterations =  1.0

     total cpu time spent up to now is        0.8 secs

     total energy              =     -25.48659052 Ry
     Harris-Foulkes estimate   =     -25.48693998 Ry
     estimated scf accuracy    <       0.00097348 Ry

     iteration #  4     ecut=    25.00 Ry     beta=0.70
     Davidson diagonalization with overlap
     ethr =  9.73E-06,  avg # of iterations =  1.0

     total cpu time spent up to now is        0.9 secs

     total energy              =     -25.48649377 Ry
     Harris-Foulkes estimate   =     -25.48663420 Ry
     estimated scf accuracy    <       0.00026424 Ry

     iteration #  5     ecut=    25.00 Ry     beta=0.70
     Davidson diagonalization with overlap
     ethr =  2.64E-06,  avg # of iterations =  2.8

     total cpu time spent up to now is        1.0 secs

     total energy              =     -25.48654731 Ry
     Harris-Foulkes estimate   =     -25.48654806 Ry
     estimated scf accuracy    <       0.00000253 Ry

     iteration #  6     ecut=    25.00 Ry     beta=0.70
     Davidson diagonalization with overlap
     ethr =  2.53E-08,  avg # of iterations =  2.2

     total cpu time spent up to now is        1.0 secs

     total energy              =     -25.48654777 Ry
     Harris-Foulkes estimate   =     -25.48654820 Ry
     estimated scf accuracy    <       0.00000108 Ry

     iteration #  7     ecut=    25.00 Ry     beta=0.70
     Davidson diagonalization with overlap
     ethr =  1.08E-08,  avg # of iterations =  2.0

     total cpu time spent up to now is        1.1 secs

     total energy              =     -25.48654786 Ry
     Harris-Foulkes estimate   =     -25.48654791 Ry
     estimated scf accuracy    <       0.00000011 Ry

     iteration #  8     ecut=    25.00 Ry     beta=0.70
     Davidson diagonalization with overlap
     ethr =  1.13E-09,  avg # of iterations =  2.0

     total cpu time spent up to now is        1.1 secs

     End of self-consistent calculation

          k = 0.0000 0.0000 0.1498 (   531 PWs)   bands (ev):

    -7.2733   2.2872   5.0421   5.0421   6.9072   9.5373  10.3838  10.3838
    14.6604

          k =-0.1377-0.2385 0.2496 (   522 PWs)   bands (ev):

    -6.2826  -0.8518   4.3354   4.9762   7.6868   8.5619   9.6229  11.9332
    13.9340

          k = 0.2754 0.4770-0.0499 (   520 PWs)   bands (ev):

    -4.8740  -3.2673   4.1653   5.0066   6.3105   9.2341  10.4193  11.6361
    16.1379

          k = 0.1377 0.2385 0.0499 (   525 PWs)   bands (ev):

    -6.7203   0.0195   4.2084   5.6907   7.0524   9.6997  10.1596  11.9483
    13.8704

          k =-0.2754-0.0000 0.3494 (   519 PWs)   bands (ev):

    -5.9140  -0.3513   2.7963   3.5201   5.8880   9.3587  11.6627  11.9516
    14.3966

          k = 0.1377 0.7156 0.0499 (   510 PWs)   bands (ev):

    -4.4005  -2.7153   1.7325   3.1868   6.4970   9.7752  12.0135  13.7562
    14.8126

          k = 0.0000 0.4770 0.1498 (   521 PWs)   bands (ev):

    -5.2250  -2.3973   2.4898   5.2351   6.4407  10.2392  11.1196  12.0032
    14.0432

          k = 0.5508 0.0000-0.2496 (   510 PWs)   bands (ev):

    -4.6717  -2.2062   2.3728   3.0121   4.6419   9.2656  13.5078  15.1148
    15.5050

          k = 0.0000-0.0000 0.4493 (   522 PWs)   bands (ev):

    -6.1284  -0.6893   5.0548   5.0548   5.9419   8.4860   8.4860   9.8239
    15.7278

          k = 0.4131 0.7156 0.1498 (   520 PWs)   bands (ev):

    -5.1974  -1.5128   1.8546   4.0501   5.9460   9.8235  10.1490  12.7571
    15.7097

     the Fermi energy is     8.1328 ev

!    total energy              =     -25.48654788 Ry
     Harris-Foulkes estimate   =     -25.48654788 Ry
     estimated scf accuracy    <          6.8E-09 Ry

     The total energy is the sum of the following terms:

     one-electron contribution =       6.69352070 Ry
     hartree contribution      =       1.27336840 Ry
     xc contribution           =      -6.33967248 Ry
     ewald contribution        =     -27.11376449 Ry
     smearing contrib. (-TS)   =       0.00000000 Ry

     convergence has been achieved in   8 iterations

     Forces acting on atoms (Ry/au):

     atom    1 type  1   force =    -0.00000000    0.00000000   -0.05676893
     atom    2 type  1   force =     0.00000000    0.00000000    0.05676893

     Total force =     0.080283     Total SCF correction =     0.000004


     entering subroutine stress ...

          total   stress  (Ry/bohr**3)                   (kbar)     P=   35.32
   0.00014879  -0.00000000  -0.00000000         21.89     -0.00     -0.00
   0.00000000   0.00014879   0.00000000          0.00     21.89      0.00
  -0.00000000   0.00000000   0.00042264         -0.00      0.00     62.17


     number of scf cycles    =   2
     number of bfgs steps    =   1

     enthalpy old            =     -25.4401222192 Ry
     enthalpy new            =     -25.4865478751 Ry

     CASE: enthalpy_new < enthalpy_old

     new trust radius        =       0.0913029488 bohr
     new conv_thr            =       0.0000001000 Ry

     new unit-cell volume =    282.73642 a.u.^3 (    41.89721 Ang^3 )

CELL_PARAMETERS (alat=  7.01033623)
   0.609968991   0.000000000   0.848980943
  -0.304984305   0.528248592   0.848980950
  -0.304984305  -0.528248592   0.848980950

ATOMIC_POSITIONS (crystal)
As       0.277418237   0.277418228   0.277418228
As      -0.277418237  -0.277418228  -0.277418228



     Writing output data file pwscf.save
     NEW-OLD atomic charge density approx. for the potential
     extrapolated charge   10.32411, renormalised to   10.00000

     total cpu time spent up to now is        1.3 secs

     per-process dynamical memory:     3.9 Mb

     Self-consistent Calculation

     iteration #  1     ecut=    25.00 Ry     beta=0.70
     Davidson diagonalization with overlap
     ethr =  1.00E-06,  avg # of iterations =  5.0

     total cpu time spent up to now is        1.4 secs

     total energy              =     -25.49422739 Ry
     Harris-Foulkes estimate   =     -25.67904470 Ry
     estimated scf accuracy    <       0.00063192 Ry

     iteration #  2     ecut=    25.00 Ry     beta=0.70
     Davidson diagonalization with overlap
     ethr =  6.32E-06,  avg # of iterations =  3.0

     total cpu time spent up to now is        1.5 secs

     total energy              =     -25.49507501 Ry
     Harris-Foulkes estimate   =     -25.49521531 Ry
     estimated scf accuracy    <       0.00033434 Ry

     iteration #  3     ecut=    25.00 Ry     beta=0.70
     Davidson diagonalization with overlap
     ethr =  3.34E-06,  avg # of iterations =  1.0

     total cpu time spent up to now is        1.5 secs

     total energy              =     -25.49506642 Ry
     Harris-Foulkes estimate   =     -25.49509263 Ry
     estimated scf accuracy    <       0.00005699 Ry

     iteration #  4     ecut=    25.00 Ry     beta=0.70
     Davidson diagonalization with overlap
     ethr =  5.70E-07,  avg # of iterations =  1.2

     total cpu time spent up to now is        1.6 secs

     total energy              =     -25.49506920 Ry
     Harris-Foulkes estimate   =     -25.49507150 Ry
     estimated scf accuracy    <       0.00000426 Ry

     iteration #  5     ecut=    25.00 Ry     beta=0.70
     Davidson diagonalization with overlap
     ethr =  4.26E-08,  avg # of iterations =  3.0

     total cpu time spent up to now is        1.6 secs

     total energy              =     -25.49507167 Ry
     Harris-Foulkes estimate   =     -25.49507168 Ry
     estimated scf accuracy    <       0.00000020 Ry

     iteration #  6     ecut=    25.00 Ry     beta=0.70
     Davidson diagonalization with overlap
     ethr =  2.02E-09,  avg # of iterations =  1.0

     total cpu time spent up to now is        1.7 secs

     total energy              =     -25.49507160 Ry
     Harris-Foulkes estimate   =     -25.49507167 Ry
     estimated scf accuracy    <       0.00000015 Ry

     iteration #  7     ecut=    25.00 Ry     beta=0.70
     Davidson diagonalization with overlap
     ethr =  1.54E-09,  avg # of iterations =  1.0

     total cpu time spent up to now is        1.7 secs

     End of self-consistent calculation

          k = 0.0000-0.0000 0.1472 (   531 PWs)   bands (ev):

    -7.3120   1.5346   4.9268   4.9268   6.3965   9.2615  10.0277  10.0277
    14.0906

          k =-0.1366-0.2366 0.2454 (   522 PWs)   bands (ev):

    -6.3364  -1.2281   3.9735   4.9819   7.3551   7.9419   8.8712  11.4917
    13.4176

          k = 0.2732 0.4733-0.0491 (   520 PWs)   bands (ev):

    -4.9470  -3.4949   4.1515   4.5881   5.8644   8.8101   9.5949  10.6943
    15.7178

          k = 0.1366 0.2366 0.0491 (   525 PWs)   bands (ev):

    -6.7756  -0.3341   4.1248   5.2251   6.5538   9.2898   9.6077  11.2554
    13.3170

          k =-0.2732-0.0000 0.3435 (   519 PWs)   bands (ev):

    -5.9695  -0.8527   2.6375   3.4340   5.2734   9.3150  11.1840  11.4541
    13.5083

          k = 0.1366 0.7099 0.0491 (   510 PWs)   bands (ev):

    -4.4960  -2.9519   1.5958   2.8170   5.9886   9.3167  11.7777  13.1743
    13.9166

          k = 0.0000 0.4733 0.1472 (   521 PWs)   bands (ev):

    -5.3174  -2.6226   2.4370   4.7075   6.0020   9.4621  10.6163  11.5918
    13.4035

          k = 0.5465 0.0000-0.2454 (   510 PWs)   bands (ev):

    -4.7993  -2.3500   1.8768   2.9432   4.1365   9.2129  12.7072  14.1850
    14.5602

          k = 0.0000-0.0000 0.4417 (   522 PWs)   bands (ev):

    -6.1415  -1.3821   5.0158   5.0158   5.8698   8.0221   8.0221   9.0996
    15.2884

          k = 0.4099 0.7099 0.1472 (   520 PWs)   bands (ev):

    -5.2103  -2.0884   1.7598   3.9968   5.5056   9.4659   9.5758  12.3593
    15.0534

     the Fermi energy is     7.8862 ev

!    total energy              =     -25.49507161 Ry
     Harris-Foulkes estimate   =     -25.49507161 Ry
     estimated scf accuracy    <          4.3E-09 Ry

     The total energy is the sum of the following terms:

     one-electron contribution =       6.44003538 Ry
     hartree contribution      =       1.27027805 Ry
     xc contribution           =      -6.28728576 Ry
     ewald contribution        =     -26.91813366 Ry
     smearing contrib. (-TS)   =       0.00003437 Ry

     convergence has been achieved in   7 iterations

     Forces acting on atoms (Ry/au):

     atom    1 type  1   force =    -0.00000000    0.00000000   -0.02256729
     atom    2 type  1   force =     0.00000000    0.00000000    0.02256729

     Total force =     0.031915     Total SCF correction =     0.000037


     entering subroutine stress ...

          total   stress  (Ry/bohr**3)                   (kbar)     P=  -12.12
  -0.00021019  -0.00000000   0.00000000        -30.92     -0.00      0.00
  -0.00000000  -0.00021019  -0.00000000         -0.00    -30.92     -0.00
   0.00000000  -0.00000000   0.00017317          0.00     -0.00     25.47


     number of scf cycles    =   3
     number of bfgs steps    =   2

     enthalpy old            =     -25.4865478751 Ry
     enthalpy new            =     -25.4950716064 Ry

     CASE: enthalpy_new < enthalpy_old

     new trust radius        =       0.0616031602 bohr
     new conv_thr            =       0.0000001000 Ry

     new unit-cell volume =    283.67517 a.u.^3 (    42.03632 Ang^3 )

CELL_PARAMETERS (alat=  7.01033623)
   0.607534515   0.000000000   0.858639993
  -0.303767067   0.526140274   0.858639999
  -0.303767067  -0.526140274   0.858639999

ATOMIC_POSITIONS (crystal)
As       0.273968033   0.273968022   0.273968022
As      -0.273968033  -0.273968022  -0.273968022



     Writing output data file pwscf.save
     NEW-OLD atomic charge density approx. for the potential
     extrapolated charge   10.03309, renormalised to   10.00000

     total cpu time spent up to now is        1.9 secs

     per-process dynamical memory:     3.9 Mb

     Self-consistent Calculation

     iteration #  1     ecut=    25.00 Ry     beta=0.70
     Davidson diagonalization with overlap
     ethr =  1.00E-06,  avg # of iterations =  4.7

     total cpu time spent up to now is        2.0 secs

     total energy              =     -25.49754336 Ry
     Harris-Foulkes estimate   =     -25.51649096 Ry
     estimated scf accuracy    <       0.00016875 Ry

     iteration #  2     ecut=    25.00 Ry     beta=0.70
     Davidson diagonalization with overlap
     ethr =  1.69E-06,  avg # of iterations =  2.0

     total cpu time spent up to now is        2.0 secs

     total energy              =     -25.49757796 Ry
     Harris-Foulkes estimate   =     -25.49757899 Ry
     estimated scf accuracy    <       0.00000406 Ry

     iteration #  3     ecut=    25.00 Ry     beta=0.70
     Davidson diagonalization with overlap
     ethr =  4.06E-08,  avg # of iterations =  2.4

     total cpu time spent up to now is        2.1 secs

     total energy              =     -25.49757892 Ry
     Harris-Foulkes estimate   =     -25.49757886 Ry
     estimated scf accuracy    <       0.00000022 Ry

     iteration #  4     ecut=    25.00 Ry     beta=0.70
     Davidson diagonalization with overlap
     ethr =  2.24E-09,  avg # of iterations =  1.2

     total cpu time spent up to now is        2.1 secs

     End of self-consistent calculation

          k = 0.0000-0.0000 0.1456 (   531 PWs)   bands (ev):

    -7.2670   1.3559   5.0694   5.0694   6.2450   9.3990  10.0422  10.0422
    14.0059

          k =-0.1372-0.2376 0.2426 (   522 PWs)   bands (ev):

    -6.2834  -1.2654   3.8748   5.1902   7.4298   7.8250   8.6357  11.4323
    13.3998

          k = 0.2743 0.4752-0.0485 (   520 PWs)   bands (ev):

    -4.8661  -3.4968   4.3212   4.4600   5.8101   8.8097   9.3169  10.3184
    15.5502

          k = 0.1372 0.2376 0.0485 (   525 PWs)   bands (ev):

    -6.7274  -0.3234   4.2614   5.1071   6.4445   9.0702   9.7237  11.0732
    13.1422

          k =-0.2743-0.0000 0.3397 (   519 PWs)   bands (ev):

    -5.9126  -0.9658   2.6926   3.5653   5.0615   9.5672  11.2146  11.4361
    13.2468

          k = 0.1372 0.7127 0.0485 (   510 PWs)   bands (ev):

    -4.4242  -2.9374   1.6187   2.7135   5.8803   9.3073  11.8964  13.1419
    13.6456

          k = 0.0000 0.4752 0.1456 (   521 PWs)   bands (ev):

    -5.2612  -2.5866   2.5311   4.5433   5.9090   9.1738  10.5946  11.6125
    13.2865

          k = 0.5487 0.0000-0.2426 (   510 PWs)   bands (ev):

    -4.7497  -2.2757   1.7064   3.0709   3.9660   9.3822  12.5107  13.8624
    14.3743

          k = 0.0000-0.0000 0.4367 (   522 PWs)   bands (ev):

    -6.0672  -1.6674   5.2136   5.2136   6.1482   7.9713   7.9713   8.9702
    15.2676

          k = 0.4115 0.7127 0.1456 (   520 PWs)   bands (ev):

    -5.1078  -2.2966   1.8303   4.1506   5.4571   9.4947   9.5940  12.4408
    14.8893

     the Fermi energy is     7.7678 ev

!    total energy              =     -25.49757894 Ry
     Harris-Foulkes estimate   =     -25.49757894 Ry
     estimated scf accuracy    <          4.2E-09 Ry

     The total energy is the sum of the following terms:

     one-electron contribution =       6.47652390 Ry
     hartree contribution      =       1.24412568 Ry
     xc contribution           =      -6.27584981 Ry
     ewald contribution        =     -26.94240602 Ry
     smearing contrib. (-TS)   =       0.00002732 Ry

     convergence has been achieved in   4 iterations

     Forces acting on atoms (Ry/au):

     atom    1 type  1   force =    -0.00000000    0.00000000   -0.00369638
     atom    2 type  1   force =     0.00000000    0.00000000    0.00369638

     Total force =     0.005227     Total SCF correction =     0.000049


     entering subroutine stress ...

          total   stress  (Ry/bohr**3)                   (kbar)     P=  -24.62
  -0.00026717  -0.00000000   0.00000000        -39.30     -0.00      0.00
  -0.00000000  -0.00026717   0.00000000         -0.00    -39.30      0.00
   0.00000000  -0.00000000   0.00003230          0.00     -0.00      4.75


     number of scf cycles    =   4
     number of bfgs steps    =   3

     enthalpy old            =     -25.4950716064 Ry
     enthalpy new            =     -25.4975789406 Ry

     CASE: enthalpy_new < enthalpy_old

     new trust radius        =       0.0331143533 bohr
     new conv_thr            =       0.0000000370 Ry

     new unit-cell volume =    280.14025 a.u.^3 (    41.51250 Ang^3 )

CELL_PARAMETERS (alat=  7.01033623)
   0.601910010  -0.000000000   0.863861418
  -0.300954815   0.521269310   0.863861423
  -0.300954815  -0.521269310   0.863861423

ATOMIC_POSITIONS (crystal)
As       0.272134263   0.272134251   0.272134251
As      -0.272134263  -0.272134251  -0.272134251



     Writing output data file pwscf.save
     NEW-OLD atomic charge density approx. for the potential
     extrapolated charge    9.87382, renormalised to   10.00000

     total cpu time spent up to now is        2.3 secs

     per-process dynamical memory:     3.9 Mb

     Self-consistent Calculation

     iteration #  1     ecut=    25.00 Ry     beta=0.70
     Davidson diagonalization with overlap
     ethr =  1.00E-06,  avg # of iterations =  4.2

     total cpu time spent up to now is        2.4 secs

     total energy              =     -25.49862569 Ry
     Harris-Foulkes estimate   =     -25.42597482 Ry
     estimated scf accuracy    <       0.00015850 Ry

     iteration #  2     ecut=    25.00 Ry     beta=0.70
     Davidson diagonalization with overlap
     ethr =  1.59E-06,  avg # of iterations =  2.7

     total cpu time spent up to now is        2.4 secs

     total energy              =     -25.49878643 Ry
     Harris-Foulkes estimate   =     -25.49882599 Ry
     estimated scf accuracy    <       0.00008862 Ry

     iteration #  3     ecut=    25.00 Ry     beta=0.70
     Davidson diagonalization with overlap
     ethr =  8.86E-07,  avg # of iterations =  1.0

     total cpu time spent up to now is        2.5 secs

     total energy              =     -25.49878775 Ry
     Harris-Foulkes estimate   =     -25.49879334 Ry
     estimated scf accuracy    <       0.00001120 Ry

     iteration #  4     ecut=    25.00 Ry     beta=0.70
     Davidson diagonalization with overlap
     ethr =  1.12E-07,  avg # of iterations =  1.7

     total cpu time spent up to now is        2.5 secs

     total energy              =     -25.49878895 Ry
     Harris-Foulkes estimate   =     -25.49878912 Ry
     estimated scf accuracy    <       0.00000032 Ry

     iteration #  5     ecut=    25.00 Ry     beta=0.70
     Davidson diagonalization with overlap
     ethr =  3.20E-09,  avg # of iterations =  2.9

     total cpu time spent up to now is        2.6 secs

     total energy              =     -25.49878933 Ry
     Harris-Foulkes estimate   =     -25.49878934 Ry
     estimated scf accuracy    <       0.00000007 Ry

     iteration #  6     ecut=    25.00 Ry     beta=0.70
     Davidson diagonalization with overlap
     ethr =  7.38E-10,  avg # of iterations =  1.0

     total cpu time spent up to now is        2.7 secs

     End of self-consistent calculation

          k = 0.0000-0.0000 0.1447 (   531 PWs)   bands (ev):

    -7.1849   1.4870   5.3247   5.3247   6.3240   9.7021  10.2549  10.2549
    14.1776

          k =-0.1384-0.2398 0.2412 (   522 PWs)   bands (ev):

    -6.1826  -1.1126   3.9206   5.4622   7.6925   7.9891   8.7142  11.5999
    13.6197

          k = 0.2769 0.4796-0.0482 (   520 PWs)   bands (ev):

    -4.7173  -3.3746   4.4997   4.5553   5.9648   9.0261   9.3685  10.2885
    15.5606

          k = 0.1384 0.2398 0.0482 (   525 PWs)   bands (ev):

    -6.6314  -0.1161   4.4912   5.1749   6.5458   9.1468   9.9915  11.1881
    13.2158

          k =-0.2769-0.0000 0.3376 (   519 PWs)   bands (ev):

    -5.8062  -0.8541   2.8382   3.7893   5.1025   9.9052  11.5097  11.6736
    13.3598

          k = 0.1384 0.7194 0.0482 (   510 PWs)   bands (ev):

    -4.2765  -2.7854   1.7257   2.7574   5.9901   9.5339  12.1759  13.3885
    13.7344

          k = 0.0000 0.4796 0.1447 (   521 PWs)   bands (ev):

    -5.1343  -2.4154   2.6848   4.5954   5.9986   9.1931  10.8195  11.8661
    13.4360

          k = 0.5538 0.0000-0.2412 (   510 PWs)   bands (ev):

    -4.6134  -2.0917   1.7230   3.2809   3.9965   9.6204  12.6508  13.9389
    14.5674

          k = 0.0000-0.0000 0.4341 (   522 PWs)   bands (ev):

    -5.9632  -1.6928   5.4994   5.4994   6.5533   8.1497   8.1497   9.1754
    15.4584

          k = 0.4153 0.7194 0.1447 (   520 PWs)   bands (ev):

    -4.9687  -2.2715   1.9735   4.3865   5.6240   9.6841   9.9435  12.7652
    14.9901

     the Fermi energy is     7.7497 ev

!    total energy              =     -25.49878931 Ry
     Harris-Foulkes estimate   =     -25.49878933 Ry
     estimated scf accuracy    <       0.00000003 Ry

     The total energy is the sum of the following terms:

     one-electron contribution =       6.65604851 Ry
     hartree contribution      =       1.21094858 Ry
     xc contribution           =      -6.28749303 Ry
     ewald contribution        =     -27.07832055 Ry
     smearing contrib. (-TS)   =       0.00002719 Ry

     convergence has been achieved in   6 iterations

     Forces acting on atoms (Ry/au):

     atom    1 type  1   force =     0.00000000    0.00000000    0.00384681
     atom    2 type  1   force =    -0.00000000    0.00000000   -0.00384681

     Total force =     0.005440     Total SCF correction =     0.000140


     entering subroutine stress ...

          total   stress  (Ry/bohr**3)                   (kbar)     P=  -19.30
  -0.00018949  -0.00000000   0.00000000        -27.88     -0.00      0.00
  -0.00000000  -0.00018949  -0.00000000         -0.00    -27.88     -0.00
   0.00000000   0.00000000  -0.00001470          0.00      0.00     -2.16


     number of scf cycles    =   5
     number of bfgs steps    =   4

     enthalpy old            =     -25.4975789406 Ry
     enthalpy new            =     -25.4987893064 Ry

     CASE: enthalpy_new < enthalpy_old

     new trust radius        =       0.0369683785 bohr
     new conv_thr            =       0.0000000385 Ry

     new unit-cell volume =    274.78384 a.u.^3 (    40.71876 Ang^3 )

CELL_PARAMETERS (alat=  7.01033623)
   0.595262727  -0.000000000   0.866374190
  -0.297631174   0.515512595   0.866374193
  -0.297631174  -0.515512595   0.866374193

ATOMIC_POSITIONS (crystal)
As       0.271453354   0.271453342   0.271453342
As      -0.271453354  -0.271453342  -0.271453342



     Writing output data file pwscf.save
     NEW-OLD atomic charge density approx. for the potential
     extrapolated charge    9.80508, renormalised to   10.00000

     total cpu time spent up to now is        3.3 secs

     per-process dynamical memory:     3.9 Mb

     Self-consistent Calculation

     iteration #  1     ecut=    25.00 Ry     beta=0.70
     Davidson diagonalization with overlap
     ethr =  1.00E-06,  avg # of iterations =  4.0

     total cpu time spent up to now is        3.4 secs

     total energy              =     -25.49911437 Ry
     Harris-Foulkes estimate   =     -25.38519390 Ry
     estimated scf accuracy    <       0.00020658 Ry

     iteration #  2     ecut=    25.00 Ry     beta=0.70
     Davidson diagonalization with overlap
     ethr =  2.07E-06,  avg # of iterations =  3.0

     total cpu time spent up to now is        3.5 secs

     total energy              =     -25.49941979 Ry
     Harris-Foulkes estimate   =     -25.49948860 Ry
     estimated scf accuracy    <       0.00016375 Ry

     iteration #  3     ecut=    25.00 Ry     beta=0.70
     Davidson diagonalization with overlap
     ethr =  1.64E-06,  avg # of iterations =  1.0

     total cpu time spent up to now is        3.6 secs

     total energy              =     -25.49942331 Ry
     Harris-Foulkes estimate   =     -25.49943138 Ry
     estimated scf accuracy    <       0.00002528 Ry

     iteration #  4     ecut=    25.00 Ry     beta=0.70
     Davidson diagonalization with overlap
     ethr =  2.53E-07,  avg # of iterations =  1.0

     total cpu time spent up to now is        3.6 secs

     total energy              =     -25.49941983 Ry
     Harris-Foulkes estimate   =     -25.49942434 Ry
     estimated scf accuracy    <       0.00000818 Ry

     iteration #  5     ecut=    25.00 Ry     beta=0.70
     Davidson diagonalization with overlap
     ethr =  8.18E-08,  avg # of iterations =  2.4

     total cpu time spent up to now is        3.7 secs

     total energy              =     -25.49942171 Ry
     Harris-Foulkes estimate   =     -25.49942171 Ry
     estimated scf accuracy    <       0.00000006 Ry

     iteration #  6     ecut=    25.00 Ry     beta=0.70
     Davidson diagonalization with overlap
     ethr =  5.85E-10,  avg # of iterations =  1.9

     total cpu time spent up to now is        3.7 secs

     total energy              =     -25.49942170 Ry
     Harris-Foulkes estimate   =     -25.49942172 Ry
     estimated scf accuracy    <       0.00000004 Ry

     iteration #  7     ecut=    25.00 Ry     beta=0.70
     Davidson diagonalization with overlap
     ethr =  4.17E-10,  avg # of iterations =  2.0

     total cpu time spent up to now is        3.8 secs

     End of self-consistent calculation

          k = 0.0000-0.0000 0.1443 (   531 PWs)   bands (ev):

    -7.0926   1.7597   5.6168   5.6168   6.5317  10.0416  10.5549  10.5549
    14.4686

          k =-0.1400-0.2425 0.2405 (   522 PWs)   bands (ev):

    -6.0687  -0.8704   4.0308   5.7324   8.0287   8.2885   8.9646  11.8860
    13.9284

          k = 0.2800 0.4850-0.0481 (   520 PWs)   bands (ev):

    -4.5489  -3.1971   4.6194   4.7964   6.2186   9.3318   9.5949  10.4362
    15.6887

          k = 0.1400 0.2425 0.0481 (   525 PWs)   bands (ev):

    -6.5205   0.1769   4.7485   5.3329   6.7374   9.3859  10.2923  11.4519
    13.4322

          k =-0.2800-0.0000 0.3367 (   519 PWs)   bands (ev):

    -5.6879  -0.6325   3.0073   4.0429   5.2844  10.2368  11.9278  12.0273
    13.6737

          k = 0.1400 0.7274 0.0481 (   510 PWs)   bands (ev):

    -4.1075  -2.5711   1.8697   2.8714   6.2005   9.8739  12.5106  13.7411
    14.0072

          k = 0.0000 0.4850 0.1443 (   521 PWs)   bands (ev):

    -4.9829  -2.1885   2.8515   4.7608   6.1645   9.3802  11.1589  12.2149
    13.7032

          k = 0.5600 0.0000-0.2405 (   510 PWs)   bands (ev):

    -4.4455  -1.8707   1.8384   3.5157   4.1327   9.8575  12.9537  14.2363
    14.9298

          k = 0.0000-0.0000 0.4328 (   522 PWs)   bands (ev):

    -5.8612  -1.5792   5.8030   5.8030   6.9933   8.4403   8.4403   9.5436
    15.7385

          k = 0.4200 0.7274 0.1443 (   520 PWs)   bands (ev):

    -4.8355  -2.1164   2.1392   4.6432   5.8969  10.0046  10.3751  13.1872
    15.2208

     the Fermi energy is     8.0860 ev

!    total energy              =     -25.49942171 Ry
     Harris-Foulkes estimate   =     -25.49942171 Ry
     estimated scf accuracy    <       0.00000001 Ry

     The total energy is the sum of the following terms:

     one-electron contribution =       6.88652840 Ry
     hartree contribution      =       1.18031977 Ry
     xc contribution           =      -6.31059906 Ry
     ewald contribution        =     -27.25569840 Ry
     smearing contrib. (-TS)   =       0.00002757 Ry

     convergence has been achieved in   7 iterations

     Forces acting on atoms (Ry/au):

     atom    1 type  1   force =     0.00000000   -0.00000000    0.00400428
     atom    2 type  1   force =    -0.00000000    0.00000000   -0.00400428

     Total force =     0.005663     Total SCF correction =     0.000084


     entering subroutine stress ...

          total   stress  (Ry/bohr**3)                   (kbar)     P=   -4.53
  -0.00004712  -0.00000000   0.00000000         -6.93     -0.00      0.00
  -0.00000000  -0.00004712   0.00000000         -0.00     -6.93      0.00
   0.00000000  -0.00000000   0.00000185          0.00     -0.00      0.27


     number of scf cycles    =   6
     number of bfgs steps    =   5

     enthalpy old            =     -25.4987893064 Ry
     enthalpy new            =     -25.4994217061 Ry

     CASE: enthalpy_new < enthalpy_old

     new trust radius        =       0.0081110887 bohr
     new conv_thr            =       0.0000000400 Ry

     new unit-cell volume =    273.45639 a.u.^3 (    40.52206 Ang^3 )

CELL_PARAMETERS (alat=  7.01033623)
   0.593806389  -0.000000000   0.866423158
  -0.296903005   0.514251370   0.866423161
  -0.296903005  -0.514251370   0.866423161

ATOMIC_POSITIONS (crystal)
As       0.271769111   0.271769099   0.271769099
As      -0.271769111  -0.271769099  -0.271769099



     Writing output data file pwscf.save
     NEW-OLD atomic charge density approx. for the potential
     extrapolated charge    9.95146, renormalised to   10.00000

     total cpu time spent up to now is        3.9 secs

     per-process dynamical memory:     4.0 Mb

     Self-consistent Calculation

     iteration #  1     ecut=    25.00 Ry     beta=0.70
     Davidson diagonalization with overlap
     ethr =  1.00E-06,  avg # of iterations =  3.0

     total cpu time spent up to now is        4.0 secs

     total energy              =     -25.49946645 Ry
     Harris-Foulkes estimate   =     -25.47093951 Ry
     estimated scf accuracy    <       0.00001379 Ry

     iteration #  2     ecut=    25.00 Ry     beta=0.70
     Davidson diagonalization with overlap
     ethr =  1.38E-07,  avg # of iterations =  3.0

     total cpu time spent up to now is        4.1 secs

     total energy              =     -25.49948457 Ry
     Harris-Foulkes estimate   =     -25.49948806 Ry
     estimated scf accuracy    <       0.00000800 Ry

     iteration #  3     ecut=    25.00 Ry     beta=0.70
     Davidson diagonalization with overlap
     ethr =  8.00E-08,  avg # of iterations =  1.0

     total cpu time spent up to now is        4.1 secs

     total energy              =     -25.49948475 Ry
     Harris-Foulkes estimate   =     -25.49948517 Ry
     estimated scf accuracy    <       0.00000111 Ry

     iteration #  4     ecut=    25.00 Ry     beta=0.70
     Davidson diagonalization with overlap
     ethr =  1.11E-08,  avg # of iterations =  1.0

     total cpu time spent up to now is        4.2 secs

     total energy              =     -25.49948470 Ry
     Harris-Foulkes estimate   =     -25.49948482 Ry
     estimated scf accuracy    <       0.00000024 Ry

     iteration #  5     ecut=    25.00 Ry     beta=0.70
     Davidson diagonalization with overlap
     ethr =  2.43E-09,  avg # of iterations =  2.8

     total cpu time spent up to now is        4.2 secs

     End of self-consistent calculation

          k = 0.0000-0.0000 0.1443 (   531 PWs)   bands (ev):

    -7.0797   1.8438   5.6691   5.6691   6.5999  10.0918  10.6233  10.6233
    14.5519

          k =-0.1403-0.2431 0.2405 (   522 PWs)   bands (ev):

    -6.0521  -0.8068   4.0602   5.7633   8.1044   8.3714   9.0615  11.9685
    13.9919

          k = 0.2807 0.4861-0.0481 (   520 PWs)   bands (ev):

    -4.5221  -3.1555   4.6559   4.8279   6.2879   9.4000   9.6855  10.5076
    15.7430

          k = 0.1403 0.2431 0.0481 (   525 PWs)   bands (ev):

    -6.5027   0.2444   4.7920   5.3829   6.7856   9.4771  10.3364  11.5360
    13.5111

          k =-0.2807-0.0000 0.3366 (   519 PWs)   bands (ev):

    -5.6722  -0.5649   3.0313   4.0888   5.3578  10.2811  12.0292  12.1155
    13.7871

          k = 0.1403 0.7292 0.0481 (   510 PWs)   bands (ev):

    -4.0823  -2.5212   1.9012   2.9069   6.2593   9.9657  12.5750  13.8241
    14.0987

          k = 0.0000 0.4861 0.1443 (   521 PWs)   bands (ev):

    -4.9562  -2.1407   2.8752   4.8213   6.2037   9.4628  11.2494  12.2871
    13.7747

          k = 0.5614 0.0000-0.2405 (   510 PWs)   bands (ev):

    -4.4153  -1.8329   1.8880   3.5567   4.1846   9.8857  13.0481  14.3527
    15.0375

          k = 0.0000-0.0000 0.4328 (   522 PWs)   bands (ev):

    -5.8548  -1.5190   5.8500   5.8500   7.0710   8.5216   8.5216   9.6510
    15.8054

          k = 0.4210 0.7292 0.1443 (   520 PWs)   bands (ev):

    -4.8277  -2.0490   2.1666   4.6850   5.9734  10.0962  10.4639  13.2770
    15.2962

     the Fermi energy is     8.1617 ev

!    total energy              =     -25.49948476 Ry
     Harris-Foulkes estimate   =     -25.49948476 Ry
     estimated scf accuracy    <          1.3E-09 Ry

     The total energy is the sum of the following terms:

     one-electron contribution =       6.93043342 Ry
     hartree contribution      =       1.17888984 Ry
     xc contribution           =      -6.31791544 Ry
     ewald contribution        =     -27.29091998 Ry
     smearing contrib. (-TS)   =       0.00002740 Ry

     convergence has been achieved in   5 iterations

     Forces acting on atoms (Ry/au):

     atom    1 type  1   force =     0.00000000   -0.00000000    0.00138452
     atom    2 type  1   force =    -0.00000000    0.00000000   -0.00138452

     Total force =     0.001958     Total SCF correction =     0.000003


     entering subroutine stress ...

          total   stress  (Ry/bohr**3)                   (kbar)     P=    1.34
  -0.00000011   0.00000000   0.00000000         -0.02      0.00      0.00
   0.00000000  -0.00000011  -0.00000000          0.00     -0.02     -0.00
   0.00000000  -0.00000000   0.00002749          0.00     -0.00      4.04


     number of scf cycles    =   7
     number of bfgs steps    =   6

     enthalpy old            =     -25.4994217061 Ry
     enthalpy new            =     -25.4994847585 Ry

     CASE: enthalpy_new < enthalpy_old

     new trust radius        =       0.0033881654 bohr
     new conv_thr            =       0.0000000063 Ry

     new unit-cell volume =    273.55925 a.u.^3 (    40.53730 Ang^3 )

CELL_PARAMETERS (alat=  7.01033623)
   0.593736394  -0.000000000   0.866953429
  -0.296868007   0.514190752   0.866953432
  -0.296868007  -0.514190752   0.866953432

ATOMIC_POSITIONS (crystal)
As       0.271955051   0.271955039   0.271955039
As      -0.271955051  -0.271955039  -0.271955039



     Writing output data file pwscf.save
     NEW-OLD atomic charge density approx. for the potential
     extrapolated charge   10.00376, renormalised to   10.00000

     total cpu time spent up to now is        4.4 secs

     per-process dynamical memory:     4.0 Mb

     Self-consistent Calculation

     iteration #  1     ecut=    25.00 Ry     beta=0.70
     Davidson diagonalization with overlap
     ethr =  1.00E-06,  avg # of iterations =  2.4

     Threshold (ethr) on eigenvalues was too large:
     Diagonalizing with lowered threshold

     Davidson diagonalization with overlap
     ethr =  3.78E-09,  avg # of iterations =  2.1

     total cpu time spent up to now is        4.5 secs

     total energy              =     -25.49949552 Ry
     Harris-Foulkes estimate   =     -25.50170514 Ry
     estimated scf accuracy    <       0.00000034 Ry

     iteration #  2     ecut=    25.00 Ry     beta=0.70
     Davidson diagonalization with overlap
     ethr =  3.36E-09,  avg # of iterations =  2.0

     total cpu time spent up to now is        4.5 secs

     total energy              =     -25.49949565 Ry
     Harris-Foulkes estimate   =     -25.49949572 Ry
     estimated scf accuracy    <       0.00000014 Ry

     iteration #  3     ecut=    25.00 Ry     beta=0.70
     Davidson diagonalization with overlap
     ethr =  1.35E-09,  avg # of iterations =  1.5

     total cpu time spent up to now is        4.6 secs

     total energy              =     -25.49949566 Ry
     Harris-Foulkes estimate   =     -25.49949567 Ry
     estimated scf accuracy    <          8.8E-09 Ry

     iteration #  4     ecut=    25.00 Ry     beta=0.70
     Davidson diagonalization with overlap
     ethr =  8.82E-11,  avg # of iterations =  2.6

     total cpu time spent up to now is        4.7 secs

     End of self-consistent calculation

          k = 0.0000-0.0000 0.1442 (   531 PWs)   bands (ev):

    -7.0867   1.8411   5.6607   5.6607   6.5966  10.0725  10.6154  10.6154
    14.5560

          k =-0.1404-0.2431 0.2403 (   522 PWs)   bands (ev):

    -6.0602  -0.8090   4.0518   5.7454   8.1000   8.3680   9.0731  11.9635
    13.9838

          k = 0.2807 0.4862-0.0481 (   520 PWs)   bands (ev):

    -4.5306  -3.1594   4.6487   4.8137   6.2866   9.3897   9.6940  10.5053
    15.7349

          k = 0.1404 0.2431 0.0481 (   525 PWs)   bands (ev):

    -6.5090   0.2383   4.7829   5.3782   6.7763   9.4811  10.3174  11.5349
    13.5137

          k =-0.2807-0.0000 0.3364 (   519 PWs)   bands (ev):

    -5.6820  -0.5664   3.0197   4.0829   5.3650  10.2644  12.0245  12.1112
    13.7978

          k = 0.1404 0.7293 0.0481 (   510 PWs)   bands (ev):

    -4.0937  -2.5254   1.8976   2.9040   6.2552   9.9662  12.5651  13.8134
    14.0978

          k = 0.0000 0.4862 0.1442 (   521 PWs)   bands (ev):

    -4.9630  -2.1473   2.8645   4.8242   6.1915   9.4675  11.2454  12.2758
    13.7709

          k = 0.5614 0.0000-0.2403 (   510 PWs)   bands (ev):

    -4.4235  -1.8448   1.8926   3.5503   4.1853   9.8677  13.0464  14.3617
    15.0331

          k = 0.0000-0.0000 0.4325 (   522 PWs)   bands (ev):

    -5.8683  -1.5136   5.8388   5.8388   7.0603   8.5251   8.5251   9.6561
    15.7958

          k = 0.4211 0.7293 0.1442 (   520 PWs)   bands (ev):

    -4.8446  -2.0420   2.1593   4.6760   5.9763  10.0993  10.4549  13.2671
    15.2951

     the Fermi energy is     8.3107 ev

!    total energy              =     -25.49949567 Ry
     Harris-Foulkes estimate   =     -25.49949567 Ry
     estimated scf accuracy    <          1.6E-09 Ry

     The total energy is the sum of the following terms:

     one-electron contribution =       6.91887659 Ry
     hartree contribution      =       1.18260211 Ry
     xc contribution           =      -6.31816186 Ry
     ewald contribution        =     -27.28283995 Ry
     smearing contrib. (-TS)   =       0.00002744 Ry

     convergence has been achieved in   4 iterations

     Forces acting on atoms (Ry/au):

     atom    1 type  1   force =     0.00000000    0.00000000    0.00048268
     atom    2 type  1   force =    -0.00000000   -0.00000000   -0.00048268

     Total force =     0.000683     Total SCF correction =     0.000035


     entering subroutine stress ...

          total   stress  (Ry/bohr**3)                   (kbar)     P=    1.89
   0.00000480   0.00000000  -0.00000000          0.71      0.00     -0.00
  -0.00000000   0.00000480  -0.00000000         -0.00      0.71     -0.00
  -0.00000000  -0.00000000   0.00002889         -0.00     -0.00      4.25


     number of scf cycles    =   8
     number of bfgs steps    =   7

     enthalpy old            =     -25.4994847585 Ry
     enthalpy new            =     -25.4994956662 Ry

     CASE: enthalpy_new < enthalpy_old

     new trust radius        =       0.0037292629 bohr
     new conv_thr            =       0.0000000011 Ry

     new unit-cell volume =    273.85010 a.u.^3 (    40.58040 Ang^3 )

CELL_PARAMETERS (alat=  7.01033623)
   0.593717359  -0.000000000   0.867930808
  -0.296858490   0.514174267   0.867930811
  -0.296858490  -0.514174267   0.867930811

ATOMIC_POSITIONS (crystal)
As       0.272096365   0.272096353   0.272096353
As      -0.272096365  -0.272096353  -0.272096353



     Writing output data file pwscf.save
     NEW-OLD atomic charge density approx. for the potential
     extrapolated charge   10.01062, renormalised to   10.00000

     total cpu time spent up to now is        4.8 secs

     per-process dynamical memory:     4.0 Mb

     Self-consistent Calculation

     iteration #  1     ecut=    25.00 Ry     beta=0.70
     Davidson diagonalization with overlap
     ethr =  1.00E-06,  avg # of iterations =  2.2

     Threshold (ethr) on eigenvalues was too large:
     Diagonalizing with lowered threshold

     Davidson diagonalization with overlap
     ethr =  4.94E-09,  avg # of iterations =  2.0

     total cpu time spent up to now is        4.9 secs

     total energy              =     -25.49950420 Ry
     Harris-Foulkes estimate   =     -25.50573564 Ry
     estimated scf accuracy    <       0.00000045 Ry

     iteration #  2     ecut=    25.00 Ry     beta=0.70
     Davidson diagonalization with overlap
     ethr =  4.55E-09,  avg # of iterations =  3.0

     total cpu time spent up to now is        5.0 secs

     total energy              =     -25.49950502 Ry
     Harris-Foulkes estimate   =     -25.49950524 Ry
     estimated scf accuracy    <       0.00000057 Ry

     iteration #  3     ecut=    25.00 Ry     beta=0.70
     Davidson diagonalization with overlap
     ethr =  4.55E-09,  avg # of iterations =  1.0

     total cpu time spent up to now is        5.0 secs

     total energy              =     -25.49950499 Ry
     Harris-Foulkes estimate   =     -25.49950505 Ry
     estimated scf accuracy    <       0.00000013 Ry

     iteration #  4     ecut=    25.00 Ry     beta=0.70
     Davidson diagonalization with overlap
     ethr =  1.26E-09,  avg # of iterations =  2.0

     total cpu time spent up to now is        5.1 secs

     total energy              =     -25.49950500 Ry
     Harris-Foulkes estimate   =     -25.49950500 Ry
     estimated scf accuracy    <          1.6E-09 Ry

     iteration #  5     ecut=    25.00 Ry     beta=0.70
     Davidson diagonalization with overlap
     ethr =  1.58E-11,  avg # of iterations =  3.0

     total cpu time spent up to now is        5.1 secs

     End of self-consistent calculation

          k = 0.0000-0.0000 0.1440 (   531 PWs)   bands (ev):

    -7.0963   1.8243   5.6478   5.6478   6.5812  10.0460  10.5982  10.5982
    14.5520

          k =-0.1404-0.2431 0.2400 (   522 PWs)   bands (ev):

    -6.0716  -0.8194   4.0352   5.7235   8.0877   8.3531   9.0736  11.9447
    13.9691

          k = 0.2807 0.4862-0.0480 (   520 PWs)   bands (ev):

    -4.5429  -3.1687   4.6323   4.7956   6.2766   9.3692   9.6904  10.4862
    15.7112

          k = 0.1404 0.2431 0.0480 (   525 PWs)   bands (ev):

    -6.5182   0.2235   4.7699   5.3630   6.7570   9.4705  10.2913  11.5205
    13.5043

          k =-0.2807-0.0000 0.3360 (   519 PWs)   bands (ev):

    -5.6957  -0.5784   3.0039   4.0738   5.3626  10.2431  12.0084  12.0962
    13.7955

          k = 0.1404 0.7293 0.0480 (   510 PWs)   bands (ev):

    -4.1099  -2.5358   1.8901   2.8942   6.2417   9.9564  12.5484  13.7892
    14.0822

          k = 0.0000 0.4862 0.1440 (   521 PWs)   bands (ev):

    -4.9736  -2.1601   2.8498   4.8183   6.1690   9.4579  11.2285  12.2552
    13.7571

          k = 0.5614 0.0000-0.2400 (   510 PWs)   bands (ev):

    -4.4365  -1.8630   1.8901   3.5407   4.1771   9.8443  13.0298  14.3544
    15.0108

          k = 0.0000-0.0000 0.4321 (   522 PWs)   bands (ev):

    -5.8857  -1.5189   5.8241   5.8241   7.0443   8.5210   8.5210   9.6505
    15.7751

          k = 0.4211 0.7293 0.1440 (   520 PWs)   bands (ev):

    -4.8657  -2.0447   2.1489   4.6635   5.9716  10.0929  10.4372  13.2471
    15.2817

     the Fermi energy is     8.2958 ev

!    total energy              =     -25.49950500 Ry
     Harris-Foulkes estimate   =     -25.49950500 Ry
     estimated scf accuracy    <          3.1E-10 Ry

     The total energy is the sum of the following terms:

     one-electron contribution =       6.89995059 Ry
     hartree contribution      =       1.18710612 Ry
     xc contribution           =      -6.31749530 Ry
     ewald contribution        =     -27.26909387 Ry
     smearing contrib. (-TS)   =       0.00002746 Ry

     convergence has been achieved in   5 iterations

     Forces acting on atoms (Ry/au):

     atom    1 type  1   force =    -0.00000000   -0.00000000   -0.00002073
     atom    2 type  1   force =     0.00000000    0.00000000    0.00002073

     Total force =     0.000029     Total SCF correction =     0.000015
     SCF correction compared to forces is large: reduce conv_thr to get better values


     entering subroutine stress ...

          total   stress  (Ry/bohr**3)                   (kbar)     P=    1.75
   0.00000570   0.00000000  -0.00000000          0.84      0.00     -0.00
   0.00000000   0.00000570  -0.00000000          0.00      0.84     -0.00
  -0.00000000   0.00000000   0.00002419         -0.00      0.00      3.56


     number of scf cycles    =   9
     number of bfgs steps    =   8

     enthalpy old            =     -25.4994956662 Ry
     enthalpy new            =     -25.4995050010 Ry

     CASE: enthalpy_new < enthalpy_old

     new trust radius        =       0.0055905646 bohr
     new conv_thr            =       0.0000000010 Ry

     new unit-cell volume =    274.29818 a.u.^3 (    40.64680 Ang^3 )

CELL_PARAMETERS (alat=  7.01033623)
   0.593701681  -0.000000000   0.869396877
  -0.296850651   0.514160690   0.869396880
  -0.296850651  -0.514160690   0.869396880

ATOMIC_POSITIONS (crystal)
As       0.272217006   0.272216995   0.272216995
As      -0.272217006  -0.272216995  -0.272216995



     Writing output data file pwscf.save
     NEW-OLD atomic charge density approx. for the potential
     extrapolated charge   10.01634, renormalised to   10.00000

     total cpu time spent up to now is        5.3 secs

     per-process dynamical memory:     4.0 Mb

     Self-consistent Calculation

     iteration #  1     ecut=    25.00 Ry     beta=0.70
     Davidson diagonalization with overlap
     ethr =  1.00E-06,  avg # of iterations =  2.5

     Threshold (ethr) on eigenvalues was too large:
     Diagonalizing with lowered threshold

     Davidson diagonalization with overlap
     ethr =  9.24E-09,  avg # of iterations =  1.4

     total cpu time spent up to now is        5.4 secs

     total energy              =     -25.49951126 Ry
     Harris-Foulkes estimate   =     -25.50907628 Ry
     estimated scf accuracy    <       0.00000090 Ry

     iteration #  2     ecut=    25.00 Ry     beta=0.70
     Davidson diagonalization with overlap
     ethr =  9.01E-09,  avg # of iterations =  3.0

     total cpu time spent up to now is        5.5 secs

     total energy              =     -25.49951319 Ry
     Harris-Foulkes estimate   =     -25.49951365 Ry
     estimated scf accuracy    <       0.00000123 Ry

     iteration #  3     ecut=    25.00 Ry     beta=0.70
     Davidson diagonalization with overlap
     ethr =  9.01E-09,  avg # of iterations =  1.0

     total cpu time spent up to now is        5.5 secs

     total energy              =     -25.49951315 Ry
     Harris-Foulkes estimate   =     -25.49951325 Ry
     estimated scf accuracy    <       0.00000029 Ry

     iteration #  4     ecut=    25.00 Ry     beta=0.70
     Davidson diagonalization with overlap
     ethr =  2.86E-09,  avg # of iterations =  1.0

     total cpu time spent up to now is        5.6 secs

     total energy              =     -25.49951313 Ry
     Harris-Foulkes estimate   =     -25.49951316 Ry
     estimated scf accuracy    <       0.00000006 Ry

     iteration #  5     ecut=    25.00 Ry     beta=0.70
     Davidson diagonalization with overlap
     ethr =  5.63E-10,  avg # of iterations =  2.6

     total cpu time spent up to now is        5.6 secs

     total energy              =     -25.49951314 Ry
     Harris-Foulkes estimate   =     -25.49951314 Ry
     estimated scf accuracy    <          1.7E-09 Ry

     iteration #  6     ecut=    25.00 Ry     beta=0.70
     Davidson diagonalization with overlap
     ethr =  1.73E-11,  avg # of iterations =  1.5

     total cpu time spent up to now is        5.7 secs

     End of self-consistent calculation

          k = 0.0000-0.0000 0.1438 (   531 PWs)   bands (ev):

    -7.1088   1.7957   5.6315   5.6315   6.5556  10.0124  10.5732  10.5732
    14.5427

          k =-0.1404-0.2431 0.2396 (   522 PWs)   bands (ev):

    -6.0863  -0.8360   4.0108   5.6972   8.0696   8.3288   9.0670  11.9143
    13.9491

          k = 0.2807 0.4862-0.0479 (   520 PWs)   bands (ev):

    -4.5587  -3.1825   4.6074   4.7735   6.2598   9.3397   9.6782  10.4522
    15.6729

          k = 0.1404 0.2431 0.0479 (   525 PWs)   bands (ev):

    -6.5301   0.2018   4.7535   5.3388   6.7285   9.4482  10.2580  11.4954
    13.4858

          k =-0.2807-0.0000 0.3355 (   519 PWs)   bands (ev):

    -5.7132  -0.5990   2.9838   4.0625   5.3535  10.2174  11.9836  12.0728
    13.7845

          k = 0.1404 0.7293 0.0479 (   510 PWs)   bands (ev):

    -4.1309  -2.5511   1.8793   2.8785   6.2203   9.9392  12.5259  13.7536
    14.0546

          k = 0.0000 0.4862 0.1438 (   521 PWs)   bands (ev):

    -4.9875  -2.1779   2.8312   4.8057   6.1365   9.4368  11.2014  12.2268
    13.7353

          k = 0.5614 0.0000-0.2396 (   510 PWs)   bands (ev):

    -4.4537  -1.8871   1.8823   3.5290   4.1616   9.8152  13.0010  14.3350
    14.9737

          k = 0.0000-0.0000 0.4313 (   522 PWs)   bands (ev):

    -5.9075  -1.5326   5.8065   5.8065   7.0247   8.5119   8.5119   9.6377
    15.7446

          k = 0.4211 0.7293 0.1438 (   520 PWs)   bands (ev):

    -4.8919  -2.0544   2.1356   4.6481   5.9618  10.0798  10.4127  13.2189
    15.2585

     the Fermi energy is     8.2715 ev

!    total energy              =     -25.49951314 Ry
     Harris-Foulkes estimate   =     -25.49951314 Ry
     estimated scf accuracy    <          4.4E-10 Ry

     The total energy is the sum of the following terms:

     one-electron contribution =       6.87408249 Ry
     hartree contribution      =       1.19261831 Ry
     xc contribution           =      -6.31614160 Ry
     ewald contribution        =     -27.25009994 Ry
     smearing contrib. (-TS)   =       0.00002760 Ry

     convergence has been achieved in   6 iterations

     Forces acting on atoms (Ry/au):

     atom    1 type  1   force =    -0.00000000    0.00000000   -0.00027281
     atom    2 type  1   force =     0.00000000    0.00000000    0.00027281

     Total force =     0.000386     Total SCF correction =     0.000017


     entering subroutine stress ...

          total   stress  (Ry/bohr**3)                   (kbar)     P=    1.09
   0.00000420   0.00000000  -0.00000000          0.62      0.00     -0.00
   0.00000000   0.00000420   0.00000000          0.00      0.62      0.00
  -0.00000000  -0.00000000   0.00001390         -0.00     -0.00      2.04


     number of scf cycles    =  10
     number of bfgs steps    =   9

     enthalpy old            =     -25.4995050010 Ry
     enthalpy new            =     -25.4995131417 Ry

     CASE: enthalpy_new < enthalpy_old

     new trust radius        =       0.0054593951 bohr
     new conv_thr            =       0.0000000010 Ry

     new unit-cell volume =    274.73620 a.u.^3 (    40.71170 Ang^3 )

CELL_PARAMETERS (alat=  7.01033623)
   0.593686477  -0.000000000   0.870829794
  -0.296843049   0.514147523   0.870829797
  -0.296843049  -0.514147523   0.870829797

ATOMIC_POSITIONS (crystal)
As       0.272274617   0.272274606   0.272274606
As      -0.272274617  -0.272274606  -0.272274606



     Writing output data file pwscf.save
     NEW-OLD atomic charge density approx. for the potential
     extrapolated charge   10.01594, renormalised to   10.00000

     total cpu time spent up to now is        5.8 secs

     per-process dynamical memory:     4.0 Mb

     Self-consistent Calculation

     iteration #  1     ecut=    25.00 Ry     beta=0.70
     Davidson diagonalization with overlap
     ethr =  1.00E-06,  avg # of iterations =  2.3

     Threshold (ethr) on eigenvalues was too large:
     Diagonalizing with lowered threshold

     Davidson diagonalization with overlap
     ethr =  8.75E-09,  avg # of iterations =  2.0

     total cpu time spent up to now is        5.9 secs

     total energy              =     -25.49951447 Ry
     Harris-Foulkes estimate   =     -25.50883185 Ry
     estimated scf accuracy    <       0.00000080 Ry

     iteration #  2     ecut=    25.00 Ry     beta=0.70
     Davidson diagonalization with overlap
     ethr =  8.04E-09,  avg # of iterations =  3.0

     total cpu time spent up to now is        6.0 secs

     total energy              =     -25.49951631 Ry
     Harris-Foulkes estimate   =     -25.49951672 Ry
     estimated scf accuracy    <       0.00000111 Ry

     iteration #  3     ecut=    25.00 Ry     beta=0.70
     Davidson diagonalization with overlap
     ethr =  8.04E-09,  avg # of iterations =  1.0

     total cpu time spent up to now is        6.0 secs

     total energy              =     -25.49951627 Ry
     Harris-Foulkes estimate   =     -25.49951636 Ry
     estimated scf accuracy    <       0.00000026 Ry

     iteration #  4     ecut=    25.00 Ry     beta=0.70
     Davidson diagonalization with overlap
     ethr =  2.62E-09,  avg # of iterations =  1.0

     total cpu time spent up to now is        6.1 secs

     total energy              =     -25.49951624 Ry
     Harris-Foulkes estimate   =     -25.49951628 Ry
     estimated scf accuracy    <       0.00000007 Ry

     iteration #  5     ecut=    25.00 Ry     beta=0.70
     Davidson diagonalization with overlap
     ethr =  6.74E-10,  avg # of iterations =  2.5

     total cpu time spent up to now is        6.2 secs

     total energy              =     -25.49951626 Ry
     Harris-Foulkes estimate   =     -25.49951626 Ry
     estimated scf accuracy    <          1.8E-09 Ry

     iteration #  6     ecut=    25.00 Ry     beta=0.70
     Davidson diagonalization with overlap
     ethr =  1.78E-11,  avg # of iterations =  1.8

     total cpu time spent up to now is        6.2 secs

     End of self-consistent calculation

          k = 0.0000-0.0000 0.1435 (   531 PWs)   bands (ev):

    -7.1196   1.7659   5.6180   5.6180   6.5293   9.9840  10.5498  10.5498
    14.5319

          k =-0.1404-0.2431 0.2392 (   522 PWs)   bands (ev):

    -6.0990  -0.8527   3.9875   5.6762   8.0526   8.3043   9.0559  11.8836
    13.9313

          k = 0.2807 0.4862-0.0478 (   520 PWs)   bands (ev):

    -4.5722  -3.1956   4.5830   4.7557   6.2427   9.3123   9.6620  10.4159
    15.6342

          k = 0.1404 0.2431 0.0478 (   525 PWs)   bands (ev):

    -6.5404   0.1813   4.7400   5.3143   6.7012   9.4226  10.2299  11.4690
    13.4652

          k =-0.2807-0.0000 0.3349 (   519 PWs)   bands (ev):

    -5.7284  -0.6204   2.9667   4.0533   5.3413  10.1968  11.9596  12.0499
    13.7692

          k = 0.1404 0.7294 0.0478 (   510 PWs)   bands (ev):

    -4.1491  -2.5656   1.8695   2.8626   6.1989   9.9211  12.5060  13.7195
    14.0254

          k = 0.0000 0.4862 0.1435 (   521 PWs)   bands (ev):

    -4.9996  -2.1943   2.8155   4.7911   6.1060   9.4122  11.1741  12.2011
    13.7137

          k = 0.5615 0.0000-0.2392 (   510 PWs)   bands (ev):

    -4.4690  -1.9082   1.8722   3.5194   4.1446   9.7908  12.9710  14.3109
    14.9354

          k = 0.0000-0.0000 0.4306 (   522 PWs)   bands (ev):

    -5.9260  -1.5496   5.7926   5.7926   7.0089   8.5016   8.5016   9.6229
    15.7157

          k = 0.4211 0.7294 0.1435 (   520 PWs)   bands (ev):

    -4.9139  -2.0674   2.1244   4.6357   5.9510  10.0652  10.3907  13.1931
    15.2340

     the Fermi energy is     8.2470 ev

!    total energy              =     -25.49951626 Ry
     Harris-Foulkes estimate   =     -25.49951626 Ry
     estimated scf accuracy    <          4.0E-10 Ry

     The total energy is the sum of the following terms:

     one-electron contribution =       6.85081682 Ry
     hartree contribution      =       1.19715427 Ry
     xc contribution           =      -6.31462651 Ry
     ewald contribution        =     -27.23288874 Ry
     smearing contrib. (-TS)   =       0.00002791 Ry

     convergence has been achieved in   6 iterations

     Forces acting on atoms (Ry/au):

     atom    1 type  1   force =    -0.00000000   -0.00000000   -0.00018774
     atom    2 type  1   force =     0.00000000    0.00000000    0.00018774

     Total force =     0.000266     Total SCF correction =     0.000016


     entering subroutine stress ...

          total   stress  (Ry/bohr**3)                   (kbar)     P=    0.21
   0.00000115   0.00000000  -0.00000000          0.17      0.00     -0.00
   0.00000000   0.00000115   0.00000000          0.00      0.17      0.00
  -0.00000000   0.00000000   0.00000197         -0.00      0.00      0.29


     number of scf cycles    =  11
     number of bfgs steps    =  10

     enthalpy old            =     -25.4995131417 Ry
     enthalpy new            =     -25.4995162569 Ry

     CASE: enthalpy_new < enthalpy_old

     new trust radius        =       0.0004274910 bohr
     new conv_thr            =       0.0000000010 Ry

     new unit-cell volume =    274.77140 a.u.^3 (    40.71692 Ang^3 )

CELL_PARAMETERS (alat=  7.01033623)
   0.593686223  -0.000000000   0.870942092
  -0.296842922   0.514147303   0.870942095
  -0.296842922  -0.514147303   0.870942095

ATOMIC_POSITIONS (crystal)
As       0.272257063   0.272257051   0.272257051
As      -0.272257063  -0.272257051  -0.272257051



     Writing output data file pwscf.save
     NEW-OLD atomic charge density approx. for the potential
     extrapolated charge   10.00128, renormalised to   10.00000

     total cpu time spent up to now is        6.3 secs

     per-process dynamical memory:     4.0 Mb

     Self-consistent Calculation

     iteration #  1     ecut=    25.00 Ry     beta=0.70
     Davidson diagonalization with overlap
     ethr =  1.00E-06,  avg # of iterations =  1.0

     Threshold (ethr) on eigenvalues was too large:
     Diagonalizing with lowered threshold

     Davidson diagonalization with overlap
     ethr =  1.72E-10,  avg # of iterations =  3.6

     total cpu time spent up to now is        6.5 secs

     total energy              =     -25.49951637 Ry
     Harris-Foulkes estimate   =     -25.50026462 Ry
     estimated scf accuracy    <          8.5E-09 Ry

     iteration #  2     ecut=    25.00 Ry     beta=0.70
     Davidson diagonalization with overlap
     ethr =  8.47E-11,  avg # of iterations =  3.0

     total cpu time spent up to now is        6.5 secs

     total energy              =     -25.49951638 Ry
     Harris-Foulkes estimate   =     -25.49951638 Ry
     estimated scf accuracy    <          4.5E-09 Ry

     iteration #  3     ecut=    25.00 Ry     beta=0.70
     Davidson diagonalization with overlap
     ethr =  4.46E-11,  avg # of iterations =  1.0

     total cpu time spent up to now is        6.6 secs

     End of self-consistent calculation

          k = 0.0000-0.0000 0.1435 (   531 PWs)   bands (ev):

    -7.1200   1.7628   5.6176   5.6176   6.5266   9.9833  10.5482  10.5482
    14.5303

          k =-0.1404-0.2431 0.2392 (   522 PWs)   bands (ev):

    -6.0995  -0.8543   3.9858   5.6761   8.0513   8.3020   9.0533  11.8807
    13.9305

          k = 0.2807 0.4862-0.0478 (   520 PWs)   bands (ev):

    -4.5726  -3.1966   4.5809   4.7555   6.2410   9.3105   9.6591  10.4117
    15.6305

          k = 0.1404 0.2431 0.0478 (   525 PWs)   bands (ev):

    -6.5408   0.1798   4.7397   5.3120   6.6991   9.4191  10.2291  11.4661
    13.4626

          k =-0.2807-0.0000 0.3349 (   519 PWs)   bands (ev):

    -5.7289  -0.6227   2.9662   4.0531   5.3390  10.1967  11.9576  12.0479
    13.7662

          k = 0.1404 0.7294 0.0478 (   510 PWs)   bands (ev):

    -4.1497  -2.5667   1.8688   2.8611   6.1969   9.9191  12.5052  13.7170
    14.0221

          k = 0.0000 0.4862 0.1435 (   521 PWs)   bands (ev):

    -5.0001  -2.1953   2.8151   4.7891   6.1038   9.4087  11.1715  12.1997
    13.7118

          k = 0.5615 0.0000-0.2392 (   510 PWs)   bands (ev):

    -4.4697  -1.9091   1.8704   3.5193   4.1425   9.7904  12.9677  14.3071
    14.9315

          k = 0.0000 0.0000 0.4306 (   522 PWs)   bands (ev):

    -5.9266  -1.5524   5.7926   5.7926   7.0087   8.5001   8.5001   9.6207
    15.7136

          k = 0.4211 0.7294 0.1435 (   520 PWs)   bands (ev):

    -4.9144  -2.0698   2.1241   4.6355   5.9495  10.0632  10.3895  13.1916
    15.2313

     the Fermi energy is     8.2447 ev

!    total energy              =     -25.49951638 Ry
     Harris-Foulkes estimate   =     -25.49951638 Ry
     estimated scf accuracy    <          6.9E-10 Ry

     The total energy is the sum of the following terms:

     one-electron contribution =       6.84968883 Ry
     hartree contribution      =       1.19721630 Ry
     xc contribution           =      -6.31443890 Ry
     ewald contribution        =     -27.23201058 Ry
     smearing contrib. (-TS)   =       0.00002798 Ry

     convergence has been achieved in   3 iterations

     Forces acting on atoms (Ry/au):

     atom    1 type  1   force =    -0.00000000    0.00000000   -0.00005745
     atom    2 type  1   force =     0.00000000    0.00000000    0.00005745

     Total force =     0.000081     Total SCF correction =     0.000009
     SCF correction compared to forces is large: reduce conv_thr to get better values


     entering subroutine stress ...

          total   stress  (Ry/bohr**3)                   (kbar)     P=    0.07
   0.00000042   0.00000000  -0.00000000          0.06      0.00     -0.00
   0.00000000   0.00000042   0.00000000          0.00      0.06      0.00
  -0.00000000   0.00000000   0.00000056         -0.00      0.00      0.08


     bfgs converged in  12 scf cycles and  11 bfgs steps
     (criteria: energy <  1.0E-05, force <  1.0E-04, cell <  5.0E-01)

     End of BFGS Geometry Optimization

     Final enthalpy =     -25.4995163792 Ry
Begin final coordinates
     new unit-cell volume =    274.77140 a.u.^3 (    40.71692 Ang^3 )

CELL_PARAMETERS (alat=  7.01033623)
   0.593686223  -0.000000000   0.870942092
  -0.296842922   0.514147303   0.870942095
  -0.296842922  -0.514147303   0.870942095

ATOMIC_POSITIONS (crystal)
As       0.272257063   0.272257051   0.272257051
As      -0.272257063  -0.272257051  -0.272257051
End final coordinates



     A final scf calculation at the relaxed structure.
     The G-vectors are recalculated for the final unit cell
     Results may differ from those at the preceding step.
 
     Parallelization info
     --------------------
     sticks:   dense  smooth     PW     G-vecs:    dense   smooth      PW
     Min         185     185     60                 2337     2337     446
     Max         186     186     61                 2338     2338     447
     Sum         371     371    121                 4675     4675     893
 


     bravais-lattice index     =            0
     lattice parameter (alat)  =       7.0103  a.u.
     unit-cell volume          =     274.7714 (a.u.)^3
     number of atoms/cell      =            2
     number of atomic types    =            1
     number of electrons       =        10.00
     number of Kohn-Sham states=            9
     kinetic-energy cutoff     =      25.0000  Ry
     charge density cutoff     =     100.0000  Ry
     convergence threshold     =      1.0E-09
     mixing beta               =       0.7000
     number of iterations used =            8  plain     mixing
     Exchange-correlation      =  SLA  PZ   NOGX NOGC ( 1  1  0  0 0 0)

     celldm(1)=   7.010336  celldm(2)=   0.000000  celldm(3)=   0.000000
     celldm(4)=   0.000000  celldm(5)=   0.000000  celldm(6)=   0.000000

     crystal axes: (cart. coord. in units of alat)
               a(1) = (   0.593686  -0.000000   0.870942 )  
               a(2) = (  -0.296843   0.514147   0.870942 )  
               a(3) = (  -0.296843  -0.514147   0.870942 )  

     reciprocal axes: (cart. coord. in units 2 pi/alat)
               b(1) = (  1.122928  0.000000  0.382727 )  
               b(2) = ( -0.561464  0.972484  0.382727 )  
               b(3) = ( -0.561464 -0.972484  0.382727 )  


     PseudoPot. # 1 for As read from file:
     /home/nvarini/espresso_hdf5/espresso/pseudo/As.pz-bhs.UPF
     MD5 check sum: 451cd3365afcfc94d28b1934951c34a8
     Pseudo is Norm-conserving, Zval =  5.0
     Generated by new atomic code, or converted to UPF format
     Using radial grid of  525 points,  2 beta functions with: 
                l(1) =   0
                l(2) =   1

     atomic species   valence    mass     pseudopotential
        As             5.00    74.90000     As( 1.00)

     12 Sym. Ops., with inversion, found



   Cartesian axes

     site n.     atom                  positions (alat units)
         1           As  tau(   1) = (   0.0000001   0.0000000   0.7113604  )
         2           As  tau(   2) = (  -0.0000001   0.0000000  -0.7113604  )

     number of k points=    10  Methfessel-Paxton smearing, width (Ry)=  0.0050
                       cart. coord. in units 2pi/alat
        k(    1) = (   0.0000000  -0.0000000   0.1435227), wk =   0.0625000
        k(    2) = (  -0.1403660  -0.2431210   0.2392046), wk =   0.1875000
        k(    3) = (   0.2807320   0.4862420  -0.0478410), wk =   0.1875000
        k(    4) = (   0.1403660   0.2431210   0.0478409), wk =   0.1875000
        k(    5) = (  -0.2807320  -0.0000000   0.3348864), wk =   0.1875000
        k(    6) = (   0.1403660   0.7293630   0.0478409), wk =   0.3750000
        k(    7) = (   0.0000000   0.4862420   0.1435227), wk =   0.3750000
        k(    8) = (   0.5614639   0.0000000  -0.2392047), wk =   0.1875000
        k(    9) = (   0.0000000   0.0000000   0.4305682), wk =   0.0625000
        k(   10) = (   0.4210980   0.7293630   0.1435227), wk =   0.1875000

     Dense  grid:     4675 G-vectors     FFT dimensions: (  24,  24,  24)

     Largest allocated arrays     est. size (Mb)     dimensions
        Kohn-Sham Wavefunctions         0.04 Mb     (     295,    9)
        NL pseudopotentials             0.04 Mb     (     295,    8)
        Each V/rho on FFT grid          0.11 Mb     (    6912)
        Each G-vector array             0.02 Mb     (    2338)
        G-vector shells                 0.01 Mb     (    1207)
     Largest temporary arrays     est. size (Mb)     dimensions
        Auxiliary wavefunctions         0.16 Mb     (     295,   36)
        Each subspace H/S matrix        0.02 Mb     (      36,   36)
        Each <psi_i|beta_j> matrix      0.00 Mb     (       8,    9)
        Arrays for rho mixing           0.84 Mb     (    6912,    8)

     Initial potential from superposition of free atoms

     starting charge    9.99960, renormalised to   10.00000
     Starting wfc are    8 randomized atomic wfcs +    1 random wfc

     Writing output data file pwscf.save

     total cpu time spent up to now is        6.7 secs

     per-process dynamical memory:     4.0 Mb

     Self-consistent Calculation

     iteration #  1     ecut=    25.00 Ry     beta=0.70
     Davidson diagonalization with overlap
     ethr =  1.00E-06,  avg # of iterations = 11.2

     total cpu time spent up to now is        6.9 secs

     total energy              =     -25.50073074 Ry
     Harris-Foulkes estimate   =     -25.50285685 Ry
     estimated scf accuracy    <       0.01040045 Ry

     iteration #  2     ecut=    25.00 Ry     beta=0.70
     Davidson diagonalization with overlap
     ethr =  1.04E-04,  avg # of iterations =  1.0

     total cpu time spent up to now is        7.0 secs

     total energy              =     -25.50085470 Ry
     Harris-Foulkes estimate   =     -25.50104063 Ry
     estimated scf accuracy    <       0.00082182 Ry

     iteration #  3     ecut=    25.00 Ry     beta=0.70
     Davidson diagonalization with overlap
     ethr =  8.22E-06,  avg # of iterations =  1.0

     total cpu time spent up to now is        7.0 secs

     total energy              =     -25.50089025 Ry
     Harris-Foulkes estimate   =     -25.50090948 Ry
     estimated scf accuracy    <       0.00003648 Ry

     iteration #  4     ecut=    25.00 Ry     beta=0.70
     Davidson diagonalization with overlap
     ethr =  3.65E-07,  avg # of iterations =  2.1

     total cpu time spent up to now is        7.1 secs

     total energy              =     -25.50089940 Ry
     Harris-Foulkes estimate   =     -25.50089945 Ry
     estimated scf accuracy    <       0.00000029 Ry

     iteration #  5     ecut=    25.00 Ry     beta=0.70
     Davidson diagonalization with overlap
     ethr =  2.92E-09,  avg # of iterations =  2.3

     total cpu time spent up to now is        7.1 secs

     total energy              =     -25.50089953 Ry
     Harris-Foulkes estimate   =     -25.50089953 Ry
     estimated scf accuracy    <       0.00000001 Ry

     iteration #  6     ecut=    25.00 Ry     beta=0.70
     Davidson diagonalization with overlap
     ethr =  1.25E-10,  avg # of iterations =  2.0

     total cpu time spent up to now is        7.2 secs

     End of self-consistent calculation

          k = 0.0000-0.0000 0.1435 (   567 PWs)   bands (ev):

    -7.1197   1.7624   5.6174   5.6174   6.5242   9.9824  10.5476  10.5476
    14.5301

          k =-0.1404-0.2431 0.2392 (   579 PWs)   bands (ev):

    -6.0997  -0.8551   3.9849   5.6755   8.0488   8.2988   9.0528  11.8794
    13.9293

          k = 0.2807 0.4862-0.0478 (   582 PWs)   bands (ev):

    -4.5731  -3.1970   4.5793   4.7544   6.2384   9.3085   9.6581  10.4098
    15.6294

          k = 0.1404 0.2431 0.0478 (   581 PWs)   bands (ev):

    -6.5408   0.1782   4.7389   5.3105   6.6970   9.4176  10.2277  11.4651
    13.4619

          k =-0.2807-0.0000 0.3349 (   579 PWs)   bands (ev):

    -5.7293  -0.6238   2.9653   4.0521   5.3378  10.1952  11.9549  12.0456
    13.7636

          k = 0.1404 0.7294 0.0478 (   579 PWs)   bands (ev):

    -4.1504  -2.5677   1.8677   2.8599   6.1950   9.9170  12.5032  13.7127
    14.0184

          k = 0.0000 0.4862 0.1435 (   574 PWs)   bands (ev):

    -5.0004  -2.1954   2.8144   4.7880   6.1021   9.4073  11.1691  12.1977
    13.7104

          k = 0.5615 0.0000-0.2392 (   585 PWs)   bands (ev):

    -4.4705  -1.9106   1.8691   3.5181   4.1407   9.7887  12.9651  14.3028
    14.9257

          k = 0.0000 0.0000 0.4306 (   592 PWs)   bands (ev):

    -5.9270  -1.5533   5.7910   5.7910   7.0052   8.4994   8.4994   9.6156
    15.7102

          k = 0.4211 0.7294 0.1435 (   583 PWs)   bands (ev):

    -4.9147  -2.0712   2.1231   4.6345   5.9481  10.0620  10.3867  13.1878
    15.2303

     the Fermi energy is     8.2415 ev

!    total energy              =     -25.50089953 Ry
     Harris-Foulkes estimate   =     -25.50089953 Ry
     estimated scf accuracy    <          7.5E-10 Ry

     The total energy is the sum of the following terms:

     one-electron contribution =       6.84798732 Ry
     hartree contribution      =       1.19787687 Ry
     xc contribution           =      -6.31478127 Ry
     ewald contribution        =     -27.23201046 Ry
     smearing contrib. (-TS)   =       0.00002801 Ry

     convergence has been achieved in   6 iterations

     Forces acting on atoms (Ry/au):

     atom    1 type  1   force =    -0.00000000   -0.00000000   -0.00005232
     atom    2 type  1   force =     0.00000000    0.00000000    0.00005232

     Total force =     0.000074     Total SCF correction =     0.000012
     SCF correction compared to forces is large: reduce conv_thr to get better values


     entering subroutine stress ...

          total   stress  (Ry/bohr**3)                   (kbar)     P=   -0.06
  -0.00000208  -0.00000000   0.00000000         -0.31     -0.00      0.00
  -0.00000000  -0.00000208   0.00000000         -0.00     -0.31      0.00
   0.00000000   0.00000000   0.00000286          0.00      0.00      0.42


     Writing output data file pwscf.save
 
     init_run     :      0.12s CPU      0.12s WALL (       2 calls)
     electrons    :      4.95s CPU      5.58s WALL (      13 calls)
     update_pot   :      0.41s CPU      0.41s WALL (      11 calls)
     forces       :      0.19s CPU      0.20s WALL (      13 calls)
     stress       :      0.35s CPU      0.35s WALL (      13 calls)

     Called by init_run:
     wfcinit      :      0.04s CPU      0.04s WALL (       2 calls)
     potinit      :      0.02s CPU      0.02s WALL (       2 calls)

     Called by electrons:
     c_bands      :      4.13s CPU      4.22s WALL (      78 calls)
     sum_band     :      0.71s CPU      0.72s WALL (      78 calls)
     v_of_rho     :      0.06s CPU      0.06s WALL (      85 calls)
     mix_rho      :      0.03s CPU      0.03s WALL (      78 calls)

     Called by c_bands:
     init_us_2    :      0.10s CPU      0.09s WALL (    1840 calls)
     cegterg      :      4.02s CPU      4.10s WALL (     780 calls)

     Called by sum_band:

     Called by *egterg:
     h_psi        :      3.07s CPU      3.14s WALL (    2565 calls)
     g_psi        :      0.03s CPU      0.04s WALL (    1765 calls)
     cdiaghg      :      0.51s CPU      0.51s WALL (    2375 calls)

     Called by h_psi:
     add_vuspsi   :      0.04s CPU      0.06s WALL (    2565 calls)

     General routines
     calbec       :      0.12s CPU      0.11s WALL (    3215 calls)
     fft          :      0.04s CPU      0.05s WALL (     415 calls)
     fftw         :      3.12s CPU      3.14s WALL (   44038 calls)
     davcio       :      0.00s CPU      0.00s WALL (      20 calls)
 
     Parallel routines
     fft_scatter  :      0.80s CPU      0.81s WALL (   44453 calls)
 
     PWSCF        :     6.60s CPU         7.27s WALL

 
   This run was terminated on:  11:26:21  15Jun2016            

=------------------------------------------------------------------------------=
   JOB DONE.
=------------------------------------------------------------------------------=
