
     Program PWSCF v.5.4.0 (svn rev. 12828M) starts on 23Aug2016 at 14:38:17 

     This program is part of the open-source Quantum ESPRESSO suite
     for quantum simulation of materials; please cite
         "P. Giannozzi et al., J. Phys.:Condens. Matter 21 395502 (2009);
          URL http://www.quantum-espresso.org", 
     in publications or presentations arising from this work. More details at
     http://www.quantum-espresso.org/quote
 
           HOST :    x86_64-pc-linux-gnu
           ARCH :    x86_64
             CC :    icc
            CPP :    cpp
            F90 :    ifort
            F77 :    ifort
         DFLAGS :    -D__INTEL -D__FFTW -D__MPI -D__PARA -D__HDF5
      BLAS LIBS :    -lmkl_intel_lp64  -lmkl_sequential -lmkl_core
    LAPACK LIBS :    
       FFT LIBS :    
      MASS LIBS :    

     Parallel version (MPI), running on     2 processors
     R & G space division:  proc/nbgrp/npool/nimage =       2
     Waiting for input...
     Reading input from standard input
     Message from routine read_cards :
     DEPRECATED: no units specified in CELL_PARAMETERS card

     Current dimensions of program PWSCF are:
     Max number of different atomic species (ntypx) = 10
     Max number of k-points (npk) =  40000
     Max angular momentum in pseudopotentials (lmaxx) =  3

     Subspace diagonalization in iterative solution of the eigenvalue problem:
     a serial algorithm will be used

 
     Parallelization info
     --------------------
     sticks:   dense  smooth     PW     G-vecs:    dense   smooth      PW
     Min         174     174     60                 2079     2079     416
     Max         175     175     61                 2080     2080     417
     Sum         349     349    121                 4159     4159     833
 


     bravais-lattice index     =            0
     lattice parameter (alat)  =       7.0103  a.u.
     unit-cell volume          =     245.3705 (a.u.)^3
     number of atoms/cell      =            2
     number of atomic types    =            1
     number of electrons       =        10.00
     number of Kohn-Sham states=            9
     kinetic-energy cutoff     =      25.0000  Ry
     charge density cutoff     =     100.0000  Ry
     convergence threshold     =      1.0E-07
     mixing beta               =       0.7000
     number of iterations used =            8  plain     mixing
     Exchange-correlation      =  SLA  PZ   NOGX NOGC ( 1  1  0  0 0 0)
     nstep                     =           55


     celldm(1)=   7.010336  celldm(2)=   0.000000  celldm(3)=   0.000000
     celldm(4)=   0.000000  celldm(5)=   0.000000  celldm(6)=   0.000000

     crystal axes: (cart. coord. in units of alat)
               a(1) = (   0.580130   0.000000   0.814524 )  
               a(2) = (  -0.290065   0.502407   0.814524 )  
               a(3) = (  -0.290065  -0.502407   0.814524 )  

     reciprocal axes: (cart. coord. in units 2 pi/alat)
               b(1) = (  1.149169  0.000000  0.409237 )  
               b(2) = ( -0.574584  0.995209  0.409237 )  
               b(3) = ( -0.574584 -0.995209  0.409237 )  


     PseudoPot. # 1 for As read from file:
     /home/nvarini/espresso_hdf5/espresso/pseudo/As.pz-bhs.UPF
     MD5 check sum: 451cd3365afcfc94d28b1934951c34a8
     Pseudo is Norm-conserving, Zval =  5.0
     Generated by new atomic code, or converted to UPF format
     Using radial grid of  525 points,  2 beta functions with: 
                l(1) =   0
                l(2) =   1

     atomic species   valence    mass     pseudopotential
        As             5.00    74.90000     As( 1.00)

      cell mass =   0.00700 AMU/(a.u.)^2 

     12 Sym. Ops., with inversion, found



   Cartesian axes

     site n.     atom                  positions (alat units)
         1           As  tau(   1) = (   0.0000001   0.0000000   0.7086605  )
         2           As  tau(   2) = (  -0.0000001   0.0000000  -0.7086605  )

     number of k points=    10  Methfessel-Paxton smearing, width (Ry)=  0.0050
                       cart. coord. in units 2pi/alat
        k(    1) = (   0.0000000   0.0000000   0.1534638), wk =   0.0625000
        k(    2) = (  -0.1436461  -0.2488023   0.2557731), wk =   0.1875000
        k(    3) = (   0.2872922   0.4976046  -0.0511547), wk =   0.1875000
        k(    4) = (   0.1436461   0.2488023   0.0511546), wk =   0.1875000
        k(    5) = (  -0.2872922   0.0000000   0.3580823), wk =   0.1875000
        k(    6) = (   0.1436461   0.7464070   0.0511546), wk =   0.3750000
        k(    7) = (   0.0000000   0.4976046   0.1534638), wk =   0.3750000
        k(    8) = (   0.5745844   0.0000000  -0.2557731), wk =   0.1875000
        k(    9) = (   0.0000000   0.0000000   0.4603915), wk =   0.0625000
        k(   10) = (   0.4309383   0.7464070   0.1534638), wk =   0.1875000

     Dense  grid:     4159 G-vectors     FFT dimensions: (  24,  24,  24)

     Estimated max dynamical RAM per process >       1.91Mb

     Estimated total allocated dynamical RAM >       3.83Mb

     Initial potential from superposition of free atoms

     starting charge    9.99960, renormalised to   10.00000
     Starting wfc are    8 randomized atomic wfcs +    1 random wfc

     total cpu time spent up to now is        0.1 secs

     per-process dynamical memory:     2.8 Mb

     Self-consistent Calculation

     iteration #  1     ecut=    25.00 Ry     beta=0.70
     Davidson diagonalization with overlap
     ethr =  1.00E-02,  avg # of iterations =  4.3

     Threshold (ethr) on eigenvalues was too large:
     Diagonalizing with lowered threshold

     Davidson diagonalization with overlap
     ethr =  1.54E-04,  avg # of iterations =  1.3

     total cpu time spent up to now is        0.2 secs

          k = 0.0000 0.0000 0.1535     band energies (ev):

    -7.1053   4.3672   5.8103   5.8103   8.3763  10.9345  11.7163  11.7165
    16.4802

          k =-0.1436-0.2488 0.2558     band energies (ev):

    -6.0372   0.2617   5.2399   5.5079   9.2633  10.3987  11.6105  13.5102
    15.6325

          k = 0.2873 0.4976-0.0512     band energies (ev):

    -4.4678  -2.5869   4.6602   6.0474   7.8159  10.7318  12.4772  13.7299
    17.6612

          k = 0.1436 0.2488 0.0512     band energies (ev):

    -6.4802   1.1693   4.8513   7.0575   8.4284  10.7693  12.3697  13.8791
    15.2959

          k =-0.2873 0.0000 0.3581     band energies (ev):

    -5.6571   0.9853   3.4682   4.1709   7.4349  10.3774  13.6201  13.6879
    16.8165

          k = 0.1436 0.7464 0.0512     band energies (ev):

    -3.9622  -1.9357   2.2453   4.1429   7.9252  11.5628  13.2833  15.6250
    17.2403

          k = 0.0000 0.4976 0.1535     band energies (ev):

    -4.8284  -1.6008   2.9139   6.5815   7.6487  12.2409  12.9988  13.3681
    15.9867

          k = 0.5746 0.0000-0.2558     band energies (ev):

    -4.1784  -1.6215   3.5882   3.6242   5.9359  10.0385  15.7915  17.6326
    18.3762

          k = 0.0000 0.0000 0.4604     band energies (ev):

    -5.9719   0.7085   5.7288   5.7288   7.3743  10.0049  10.0050  11.9991
    17.4354

          k = 0.4309 0.7464 0.1535     band energies (ev):

    -4.9671  -0.1863   2.3479   4.6529   7.4527  11.5755  11.9685  14.4004
    17.7483

     the Fermi energy is     9.6594 ev

     total energy              =     -25.43995582 Ry
     Harris-Foulkes estimate   =     -25.44371120 Ry
     estimated scf accuracy    <       0.01555792 Ry

     iteration #  2     ecut=    25.00 Ry     beta=0.70
     Davidson diagonalization with overlap
     ethr =  1.56E-04,  avg # of iterations =  1.0

     total cpu time spent up to now is        0.3 secs

          k = 0.0000 0.0000 0.1535     band energies (ev):

    -7.0137   4.5096   5.9379   5.9380   8.4239  11.0299  11.7525  11.7528
    16.5514

          k =-0.1436-0.2488 0.2558     band energies (ev):

    -5.9433   0.3741   5.3357   5.6223   9.2927  10.5195  11.6920  13.5516
    15.7034

          k = 0.2873 0.4976-0.0512     band energies (ev):

    -4.3683  -2.4878   4.7630   6.1415   7.8721  10.8058  12.5735  13.8145
    17.7127

          k = 0.1436 0.2488 0.0512     band energies (ev):

    -6.3873   1.2850   4.9604   7.1599   8.5304  10.7970  12.4586  13.9539
    15.3364

          k =-0.2873 0.0000 0.3581     band energies (ev):

    -5.5615   1.1092   3.5497   4.2736   7.5078  10.4113  13.6941  13.7628
    16.8964

          k = 0.1436 0.7464 0.0512     band energies (ev):

    -3.8591  -1.8288   2.3104   4.2331   8.0395  11.6118  13.3112  15.7095
    17.3372

          k = 0.0000 0.4976 0.1535     band energies (ev):

    -4.7309  -1.4914   2.9825   6.6809   7.7626  12.2948  13.0567  13.4188
    16.0825

          k = 0.5746 0.0000-0.2558     band energies (ev):

    -4.0733  -1.5260   3.6852   3.7196   6.0134  10.0510  15.9000  17.7084
    18.4678

          k = 0.0000 0.0000 0.4604     band energies (ev):

    -5.8779   0.8254   5.8542   5.8542   7.4015  10.0553  10.0553  12.1125
    17.3958

          k = 0.4309 0.7464 0.1535     band energies (ev):

    -4.8694  -0.0638   2.4168   4.7578   7.5018  11.6691  12.0525  14.4660
    17.7736

     the Fermi energy is     9.9953 ev

     total energy              =     -25.44007958 Ry
     Harris-Foulkes estimate   =     -25.44026237 Ry
     estimated scf accuracy    <       0.00088852 Ry

     iteration #  3     ecut=    25.00 Ry     beta=0.70
     Davidson diagonalization with overlap
     ethr =  8.89E-06,  avg # of iterations =  1.6

     total cpu time spent up to now is        0.3 secs

          k = 0.0000 0.0000 0.1535     band energies (ev):

    -6.9926   4.5236   5.9707   5.9707   8.4388  11.0430  11.7624  11.7625
    16.5646

          k =-0.1436-0.2488 0.2558     band energies (ev):

    -5.9213   0.3954   5.3530   5.6541   9.3021  10.5327  11.7026  13.5658
    15.7172

          k = 0.2873 0.4976-0.0512     band energies (ev):

    -4.3450  -2.4670   4.7918   6.1570   7.8811  10.8175  12.5863  13.8273
    17.7278

          k = 0.1436 0.2488 0.0512     band energies (ev):

    -6.3660   1.3087   4.9894   7.1744   8.5452  10.8074  12.4731  13.9648
    15.3521

          k =-0.2873 0.0000 0.3581     band energies (ev):

    -5.5388   1.1307   3.5673   4.3008   7.5167  10.4235  13.7112  13.7778
    16.9052

          k = 0.1436 0.7464 0.0512     band energies (ev):

    -3.8350  -1.8060   2.3286   4.2477   8.0559  11.6232  13.3242  15.7233
    17.3516

          k = 0.0000 0.4976 0.1535     band energies (ev):

    -4.7087  -1.4680   3.0038   6.6938   7.7802  12.3055  13.0708  13.4313
    16.0976

          k = 0.5746 0.0000-0.2558     band energies (ev):

    -4.0500  -1.5020   3.7113   3.7305   6.0252  10.0603  15.9149  17.7183
    18.4808

          k = 0.0000 0.0000 0.4604     band energies (ev):

    -5.8545   0.8377   5.8879   5.8879   7.4151  10.0645  10.0645  12.1202
    17.3944

          k = 0.4309 0.7464 0.1535     band energies (ev):

    -4.8448  -0.0467   2.4350   4.7863   7.5100  11.6863  12.0667  14.4792
    17.7696

     the Fermi energy is    10.0046 ev

     total energy              =     -25.44011386 Ry
     Harris-Foulkes estimate   =     -25.44011521 Ry
     estimated scf accuracy    <       0.00000507 Ry

     iteration #  4     ecut=    25.00 Ry     beta=0.70
     Davidson diagonalization with overlap
     ethr =  5.07E-08,  avg # of iterations =  3.1

     total cpu time spent up to now is        0.4 secs

          k = 0.0000 0.0000 0.1535     band energies (ev):

    -6.9950   4.5219   5.9679   5.9679   8.4363  11.0417  11.7605  11.7605
    16.5653

          k =-0.1436-0.2488 0.2558     band energies (ev):

    -5.9240   0.3931   5.3523   5.6511   9.2998  10.5321  11.7017  13.5635
    15.7174

          k = 0.2873 0.4976-0.0512     band energies (ev):

    -4.3479  -2.4693   4.7892   6.1565   7.8803  10.8159  12.5862  13.8271
    17.7267

          k = 0.1436 0.2488 0.0512     band energies (ev):

    -6.3685   1.3056   4.9869   7.1734   8.5448  10.8051  12.4714  13.9623
    15.3512

          k =-0.2873 0.0000 0.3581     band energies (ev):

    -5.5417   1.1281   3.5666   4.2987   7.5168  10.4219  13.7084  13.7755
    16.9056

          k = 0.1436 0.7464 0.0512     band energies (ev):

    -3.8382  -1.8087   2.3275   4.2477   8.0554  11.6209  13.3233  15.7214
    17.3503

          k = 0.0000 0.4976 0.1535     band energies (ev):

    -4.7114  -1.4709   3.0020   6.6939   7.7792  12.3040  13.0681  13.4309
    16.0974

          k = 0.5746 0.0000-0.2558     band energies (ev):

    -4.0530  -1.5052   3.7092   3.7310   6.0252  10.0591  15.9128  17.7163
    18.4789

          k = 0.0000 0.0000 0.4604     band energies (ev):

    -5.8576   0.8378   5.8851   5.8851   7.4115  10.0633  10.0633  12.1210
    17.3936

          k = 0.4309 0.7464 0.1535     band energies (ev):

    -4.8482  -0.0481   2.4343   4.7840   7.5094  11.6840  12.0653  14.4768
    17.7702

     the Fermi energy is    10.0034 ev

     total energy              =     -25.44012213 Ry
     Harris-Foulkes estimate   =     -25.44012249 Ry
     estimated scf accuracy    <       0.00000078 Ry

     iteration #  5     ecut=    25.00 Ry     beta=0.70
     Davidson diagonalization with overlap
     ethr =  7.81E-09,  avg # of iterations =  1.4

     total cpu time spent up to now is        0.4 secs

     End of self-consistent calculation

          k = 0.0000 0.0000 0.1535 (   531 PWs)   bands (ev):

    -6.9960   4.5196   5.9667   5.9667   8.4360  11.0403  11.7601  11.7601
    16.5646

          k =-0.1436-0.2488 0.2558 (   522 PWs)   bands (ev):

    -5.9250   0.3917   5.3512   5.6501   9.2996  10.5303  11.7005  13.5632
    15.7167

          k = 0.2873 0.4976-0.0512 (   520 PWs)   bands (ev):

    -4.3490  -2.4705   4.7883   6.1553   7.8795  10.8148  12.5848  13.8261
    17.7262

          k = 0.1436 0.2488 0.0512 (   525 PWs)   bands (ev):

    -6.3695   1.3042   4.9860   7.1720   8.5434  10.8049  12.4702  13.9612
    15.3511

          k =-0.2873 0.0000 0.3581 (   519 PWs)   bands (ev):

    -5.5427   1.1264   3.5658   4.2977   7.5158  10.4217  13.7075  13.7746
    16.9045

          k = 0.1436 0.7464 0.0512 (   510 PWs)   bands (ev):

    -3.8394  -1.8100   2.3270   4.2466   8.0538  11.6204  13.3234  15.7202
    17.3489

          k = 0.0000 0.4976 0.1535 (   521 PWs)   bands (ev):

    -4.7124  -1.4722   3.0016   6.6925   7.7777  12.3034  13.0675  13.4304
    16.0961

          k = 0.5746 0.0000-0.2558 (   510 PWs)   bands (ev):

    -4.0542  -1.5061   3.7084   3.7296   6.0242  10.0593  15.9112  17.7151
    18.4776

          k = 0.0000 0.0000 0.4604 (   522 PWs)   bands (ev):

    -5.8586   0.8360   5.8840   5.8840   7.4114  10.0627  10.0627  12.1191
    17.3944

          k = 0.4309 0.7464 0.1535 (   520 PWs)   bands (ev):

    -4.8493  -0.0499   2.4338   4.7831   7.5088  11.6828  12.0642  14.4760
    17.7700

     the Fermi energy is    10.0033 ev

!    total energy              =     -25.44012222 Ry
     Harris-Foulkes estimate   =     -25.44012223 Ry
     estimated scf accuracy    <       0.00000002 Ry

     convergence has been achieved in   5 iterations

     Forces acting on atoms (Ry/au):

     atom    1 type  1   force =     0.00000000    0.00000000   -0.12659853
     atom    2 type  1   force =     0.00000000    0.00000000    0.12659853

     Total force =     0.179037     Total SCF correction =     0.000029


     entering subroutine stress ...

          total   stress  (Ry/bohr**3)                   (kbar)     P=  217.53
   0.00172380  -0.00000000  -0.00000000        253.58     -0.00     -0.00
   0.00000000   0.00172380   0.00000000          0.00    253.58      0.00
  -0.00000000   0.00000000   0.00098859         -0.00      0.00    145.43


     Wentzcovitch Damped Cell Dynamics Minimization:
     convergence thresholds EPSE = 1.00E-05  EPSF = 1.00E-04

     Entering Dynamics;  it =     1   time =  0.00000 pico-seconds

  new lattice vectors (alat unit) :
   0.570818162   0.000000000   0.795712692
  -0.285408897   0.494342983   0.795712695
  -0.285408897  -0.494342983   0.795712695
  new unit-cell volume =    232.0706 (a.u.)^3
  new positions in cryst coord
As       0.288386158   0.288386157   0.288386157
As      -0.288386158  -0.288386157  -0.288386157
  new positions in cart coord (alat unit)
As       0.000000107   0.000000000   0.688417579
As      -0.000000107   0.000000000  -0.688417579

     Ekin =     0.00000000 Ry    T =    0.0 K  Etot =   -24.60612481
     new unit-cell volume =    232.07061 a.u.^3 (    34.38932 Ang^3 )

CELL_PARAMETERS (alat=  7.01033623)
   0.570818162   0.000000000   0.795712692
  -0.285408897   0.494342983   0.795712695
  -0.285408897  -0.494342983   0.795712695

ATOMIC_POSITIONS (crystal)
As       0.288386158   0.288386157   0.288386157
As      -0.288386158  -0.288386157  -0.288386157



     Writing output data file pwscf.save
     NEW-OLD atomic charge density approx. for the potential
     extrapolated charge    9.42693, renormalised to   10.00000

     total cpu time spent up to now is        0.6 secs

     per-process dynamical memory:     3.7 Mb

     Self-consistent Calculation

     iteration #  1     ecut=    25.00 Ry     beta=0.70
     Davidson diagonalization with overlap
     ethr =  1.00E-06,  avg # of iterations =  4.0

     total cpu time spent up to now is        0.7 secs

          k = 0.0000 0.0000 0.1571     band energies (ev):

    -6.6558   5.5283   6.6402   6.6402   9.4212  12.0608  12.7037  12.7037
    17.5234

          k =-0.1460-0.2529 0.2618     band energies (ev):

    -5.5327   1.0317   6.1147   6.3538  10.2918  11.5499  12.5319  14.6236
    16.8121

          k = 0.2920 0.5057-0.0524     band energies (ev):

    -3.8918  -1.9560   5.4518   6.9294   8.7842  11.8905  13.4425  14.9082
    18.9510

          k = 0.1460 0.2529 0.0524     band energies (ev):

    -6.0108   2.0290   5.6297   8.0781   9.3945  11.8371  13.5274  14.9819
    16.4534

          k =-0.2920 0.0000 0.3665     band energies (ev):

    -5.1172   1.8754   4.2084   4.8897   8.2877  11.3819  14.7640  14.8373
    17.9806

          k = 0.1460 0.7586 0.0524     band energies (ev):

    -3.3228  -1.2472   2.8707   4.9166   8.8918  12.6023  14.3193  16.8804
    18.5095

          k = 0.0000 0.5057 0.1571     band energies (ev):

    -4.2796  -0.8790   3.6017   7.4643   8.6523  13.2929  14.1680  14.4687
    17.1777

          k = 0.5840 0.0000-0.2618     band energies (ev):

    -3.5617  -0.9082   4.2835   4.3923   6.7503  11.0211  16.9882  18.9472
    19.6793

          k = 0.0000 0.0000 0.4713     band energies (ev):

    -5.4239   1.4626   6.5532   6.5532   8.4552  10.8648  10.8648  13.1788
    18.6554

          k = 0.4380 0.7586 0.1571     band energies (ev):

    -4.3554   0.5760   2.9882   5.4130   8.3313  12.7616  12.9278  15.6086
    18.9035

     the Fermi energy is    10.8075 ev

     total energy              =     -25.42251997 Ry
     Harris-Foulkes estimate   =     -25.06270828 Ry
     estimated scf accuracy    <       0.00179400 Ry

     iteration #  2     ecut=    25.00 Ry     beta=0.70
     Davidson diagonalization with overlap
     ethr =  1.79E-05,  avg # of iterations =  3.1

     total cpu time spent up to now is        0.8 secs

          k = 0.0000 0.0000 0.1571     band energies (ev):

    -6.5676   5.5396   6.8118   6.8118   9.4993  12.0441  12.7150  12.7151
    17.2952

          k =-0.1460-0.2529 0.2618     band energies (ev):

    -5.4252   1.1215   6.0502   6.5420  10.3083  11.4783  12.4325  14.6631
    16.6494

          k = 0.2920 0.5057-0.0524     band energies (ev):

    -3.7603  -1.8755   5.5977   6.8341   8.7043  11.8808  13.3033  14.7838
    18.8575

          k = 0.1460 0.2529 0.0524     band energies (ev):

    -5.9237   2.1895   5.7607   8.0323   9.3093  11.8587  13.5326  14.9970
    16.3297

          k =-0.2920 0.0000 0.3665     band energies (ev):

    -4.9873   1.9978   4.1385   4.9781   8.1261  11.3335  14.8202  14.9508
    17.7921

          k = 0.1460 0.7586 0.0524     band energies (ev):

    -3.1518  -1.1234   2.8361   4.7809   8.8242  12.6313  14.2258  16.8960
    18.4931

          k = 0.0000 0.5057 0.1571     band energies (ev):

    -4.1709  -0.7349   3.6465   7.2996   8.6319  13.2472  14.2409  14.3493
    17.0655

          k = 0.5840 0.0000-0.2618     band energies (ev):

    -3.4156  -0.7423   4.1997   4.3623   6.6166  10.9344  17.0252  18.9202
    19.7286

          k = 0.0000 0.0000 0.4713     band energies (ev):

    -5.2672   1.3133   6.7219   6.7219   8.5846  10.8031  10.8031  12.9835
    18.4646

          k = 0.4380 0.7586 0.1571     band energies (ev):

    -4.1631   0.5573   2.9170   5.5267   8.2249  12.8343  12.9157  15.6642
    18.6672

     the Fermi energy is    10.7460 ev

     total energy              =     -25.42513068 Ry
     Harris-Foulkes estimate   =     -25.42560445 Ry
     estimated scf accuracy    <       0.00109839 Ry

     iteration #  3     ecut=    25.00 Ry     beta=0.70
     Davidson diagonalization with overlap
     ethr =  1.10E-05,  avg # of iterations =  1.0

     total cpu time spent up to now is        0.8 secs

          k = 0.0000 0.0000 0.1571     band energies (ev):

    -6.6070   5.5252   6.7615   6.7615   9.4566  12.0250  12.6836  12.6836
    17.2981

          k =-0.1460-0.2529 0.2618     band energies (ev):

    -5.4674   1.0860   6.0349   6.4871  10.2752  11.4717  12.4250  14.6242
    16.6440

          k = 0.2920 0.5057-0.0524     band energies (ev):

    -3.8058  -1.9117   5.5486   6.8236   8.6899  11.8575  13.3014  14.7772
    18.8375

          k = 0.1460 0.2529 0.0524     band energies (ev):

    -5.9628   2.1430   5.7149   8.0183   9.3005  11.8235  13.5089  14.9716
    16.3098

          k =-0.2920 0.0000 0.3665     band energies (ev):

    -5.0327   1.9606   4.1197   4.9380   8.1270  11.3065  14.7862  14.9058
    17.7968

          k = 0.1460 0.7586 0.0524     band energies (ev):

    -3.2026  -1.1658   2.8118   4.7760   8.8142  12.5981  14.2040  16.8688
    18.4730

          k = 0.0000 0.5057 0.1571     band energies (ev):

    -4.2128  -0.7799   3.6094   7.3020   8.6147  13.2272  14.2031  14.3310
    17.0588

          k = 0.5840 0.0000-0.2618     band energies (ev):

    -3.4618  -0.7942   4.2071   4.3232   6.6116  10.9108  16.9998  18.9013
    19.6970

          k = 0.0000 0.0000 0.4713     band energies (ev):

    -5.3171   1.3169   6.6705   6.6705   8.5292  10.7854  10.7854  12.9981
    18.4512

          k = 0.4380 0.7586 0.1571     band energies (ev):

    -4.2184   0.5436   2.8947   5.4826   8.2132  12.7994  12.8938  15.6293
    18.6700

     the Fermi energy is    10.7284 ev

     total energy              =     -25.42510433 Ry
     Harris-Foulkes estimate   =     -25.42518860 Ry
     estimated scf accuracy    <       0.00020008 Ry

     iteration #  4     ecut=    25.00 Ry     beta=0.70
     Davidson diagonalization with overlap
     ethr =  2.00E-06,  avg # of iterations =  1.0

     total cpu time spent up to now is        0.9 secs

          k = 0.0000 0.0000 0.1571     band energies (ev):

    -6.6247   5.5135   6.7391   6.7391   9.4394  12.0144  12.6702  12.6702
    17.2975

          k =-0.1460-0.2529 0.2618     band energies (ev):

    -5.4861   1.0688   6.0262   6.4636  10.2615  11.4644  12.4186  14.6086
    16.6396

          k = 0.2920 0.5057-0.0524     band energies (ev):

    -3.8259  -1.9286   5.5275   6.8167   8.6820  11.8459  13.2971  14.7716
    18.8288

          k = 0.1460 0.2529 0.0524     band energies (ev):

    -5.9805   2.1217   5.6948   8.0091   9.2935  11.8095  13.4963  14.9586
    16.3021

          k =-0.2920 0.0000 0.3665     band energies (ev):

    -5.0527   1.9419   4.1106   4.9203   8.1241  11.2960  14.7705  14.8864
    17.7950

          k = 0.1460 0.7586 0.0524     band energies (ev):

    -3.2249  -1.1852   2.8009   4.7711   8.8062  12.5838  14.1954  16.8555
    18.4614

          k = 0.0000 0.5057 0.1571     band energies (ev):

    -4.2316  -0.8004   3.5938   7.2993   8.6042  13.2174  14.1867  14.3231
    17.0526

          k = 0.5840 0.0000-0.2618     band energies (ev):

    -3.4825  -0.8164   4.2060   4.3059   6.6069  10.9021  16.9857  18.8909
    19.6812

          k = 0.0000 0.0000 0.4713     band energies (ev):

    -5.3388   1.3136   6.6481   6.6481   8.5083  10.7765  10.7765  12.9983
    18.4470

          k = 0.4380 0.7586 0.1571     band energies (ev):

    -4.2421   0.5333   2.8851   5.4633   8.2067  12.7831  12.8822  15.6137
    18.6696

     the Fermi energy is    10.7195 ev

     total energy              =     -25.42509583 Ry
     Harris-Foulkes estimate   =     -25.42511731 Ry
     estimated scf accuracy    <       0.00003625 Ry

     iteration #  5     ecut=    25.00 Ry     beta=0.70
     Davidson diagonalization with overlap
     ethr =  3.62E-07,  avg # of iterations =  3.0

     total cpu time spent up to now is        0.9 secs

          k = 0.0000 0.0000 0.1571     band energies (ev):

    -6.6379   5.5045   6.7224   6.7224   9.4268  12.0066  12.6602  12.6602
    17.2970

          k =-0.1460-0.2529 0.2618     band energies (ev):

    -5.5001   1.0559   6.0196   6.4461  10.2513  11.4589  12.4137  14.5971
    16.6363

          k = 0.2920 0.5057-0.0524     band energies (ev):

    -3.8408  -1.9412   5.5118   6.8115   8.6760  11.8372  13.2937  14.7673
    18.8221

          k = 0.1460 0.2529 0.0524     band energies (ev):

    -5.9935   2.1057   5.6798   8.0021   9.2882  11.7992  13.4868  14.9487
    16.2966

          k =-0.2920 0.0000 0.3665     band energies (ev):

    -5.0675   1.9279   4.1039   4.9071   8.1219  11.2883  14.7587  14.8720
    17.7935

          k = 0.1460 0.7586 0.0524     band energies (ev):

    -3.2414  -1.1997   2.7928   4.7675   8.8002  12.5732  14.1890  16.8455
    18.4527

          k = 0.0000 0.5057 0.1571     band energies (ev):

    -4.2455  -0.8157   3.5822   7.2971   8.5962  13.2101  14.1745  14.3174
    17.0479

          k = 0.5840 0.0000-0.2618     band energies (ev):

    -3.4980  -0.8328   4.2049   4.2931   6.6034  10.8957  16.9749  18.8830
    19.6694

          k = 0.0000 0.0000 0.4713     band energies (ev):

    -5.3548   1.3109   6.6314   6.6314   8.4931  10.7698  10.7698  12.9982
    18.4441

          k = 0.4380 0.7586 0.1571     band energies (ev):

    -4.2596   0.5254   2.8781   5.4490   8.2017  12.7709  12.8734  15.6022
    18.6692

     the Fermi energy is    10.7127 ev

     total energy              =     -25.42510892 Ry
     Harris-Foulkes estimate   =     -25.42510913 Ry
     estimated scf accuracy    <       0.00000106 Ry

     iteration #  6     ecut=    25.00 Ry     beta=0.70
     Davidson diagonalization with overlap
     ethr =  1.06E-08,  avg # of iterations =  1.1

     total cpu time spent up to now is        1.0 secs

          k = 0.0000 0.0000 0.1571     band energies (ev):

    -6.6375   5.5046   6.7230   6.7230   9.4271  12.0066  12.6606  12.6606
    17.2969

          k =-0.1460-0.2529 0.2618     band energies (ev):

    -5.4996   1.0562   6.0197   6.4467  10.2516  11.4588  12.4138  14.5975
    16.6363

          k = 0.2920 0.5057-0.0524     band energies (ev):

    -3.8404  -1.9409   5.5124   6.8115   8.6761  11.8374  13.2936  14.7673
    18.8222

          k = 0.1460 0.2529 0.0524     band energies (ev):

    -5.9931   2.1062   5.6803   8.0022   9.2882  11.7995  13.4871  14.9491
    16.2967

          k =-0.2920 0.0000 0.3665     band energies (ev):

    -5.0671   1.9283   4.1040   4.9075   8.1218  11.2885  14.7591  14.8725
    17.7933

          k = 0.1460 0.7586 0.0524     band energies (ev):

    -3.2409  -1.1992   2.7930   4.7675   8.8002  12.5736  14.1892  16.8458
    18.4529

          k = 0.0000 0.5057 0.1571     band energies (ev):

    -4.2451  -0.8152   3.5826   7.2970   8.5963  13.2103  14.1749  14.3175
    17.0479

          k = 0.5840 0.0000-0.2618     band energies (ev):

    -3.4975  -0.8323   4.2048   4.2935   6.6033  10.8960  16.9752  18.8832
    19.6697

          k = 0.0000 0.0000 0.4713     band energies (ev):

    -5.3543   1.3108   6.6320   6.6320   8.4936  10.7700  10.7700  12.9978
    18.4442

          k = 0.4380 0.7586 0.1571     band energies (ev):

    -4.2590   0.5255   2.8783   5.4495   8.2018  12.7712  12.8737  15.6025
    18.6691

     the Fermi energy is    10.7129 ev

     total energy              =     -25.42510865 Ry
     Harris-Foulkes estimate   =     -25.42510894 Ry
     estimated scf accuracy    <       0.00000055 Ry

     iteration #  7     ecut=    25.00 Ry     beta=0.70
     Davidson diagonalization with overlap
     ethr =  5.49E-09,  avg # of iterations =  2.0

     total cpu time spent up to now is        1.0 secs

     End of self-consistent calculation

          k = 0.0000 0.0000 0.1571 (   531 PWs)   bands (ev):

    -6.6362   5.5053   6.7247   6.7247   9.4283  12.0072  12.6617  12.6617
    17.2969

          k =-0.1460-0.2529 0.2618 (   522 PWs)   bands (ev):

    -5.4982   1.0575   6.0202   6.4485  10.2527  11.4591  12.4141  14.5987
    16.6365

          k = 0.2920 0.5057-0.0524 (   520 PWs)   bands (ev):

    -3.8389  -1.9396   5.5140   6.8118   8.6766  11.8381  13.2938  14.7676
    18.8229

          k = 0.1460 0.2529 0.0524 (   525 PWs)   bands (ev):

    -5.9918   2.1078   5.6819   8.0027   9.2884  11.8006  13.4879  14.9501
    16.2973

          k =-0.2920 0.0000 0.3665 (   519 PWs)   bands (ev):

    -5.0656   1.9296   4.1045   4.9088   8.1218  11.2893  14.7603  14.8740
    17.7932

          k = 0.1460 0.7586 0.0524 (   510 PWs)   bands (ev):

    -3.2392  -1.1978   2.7938   4.7676   8.8005  12.5747  14.1899  16.8467
    18.4536

          k = 0.0000 0.5057 0.1571 (   521 PWs)   bands (ev):

    -4.2437  -0.8137   3.5838   7.2970   8.5969  13.2109  14.1762  14.3181
    17.0482

          k = 0.5840 0.0000-0.2618 (   510 PWs)   bands (ev):

    -3.4959  -0.8306   4.2046   4.2948   6.6034  10.8966  16.9763  18.8838
    19.6708

          k = 0.0000 0.0000 0.4713 (   522 PWs)   bands (ev):

    -5.3526   1.3108   6.6337   6.6337   8.4952  10.7707  10.7707  12.9974
    18.4444

          k = 0.4380 0.7586 0.1571 (   520 PWs)   bands (ev):

    -4.2572   0.5261   2.8789   5.4510   8.2022  12.7723  12.8745  15.6037
    18.6690

     the Fermi energy is    10.7136 ev

!    total energy              =     -25.42510872 Ry
     Harris-Foulkes estimate   =     -25.42510872 Ry
     estimated scf accuracy    <          4.2E-10 Ry

     convergence has been achieved in   7 iterations

     Forces acting on atoms (Ry/au):

     atom    1 type  1   force =    -0.00000000    0.00000000   -0.13714820
     atom    2 type  1   force =     0.00000000    0.00000000    0.13714820

     Total force =     0.193957     Total SCF correction =     0.000003


     entering subroutine stress ...

          total   stress  (Ry/bohr**3)                   (kbar)     P=  299.79
   0.00234208   0.00000000  -0.00000000        344.53      0.00     -0.00
   0.00000000   0.00234208   0.00000000          0.00    344.53      0.00
  -0.00000000   0.00000000   0.00142962         -0.00      0.00    210.30


     Entering Dynamics;  it =     2   time =  0.00726 pico-seconds

  new lattice vectors (alat unit) :
   0.551671535   0.000000000   0.751639842
  -0.275835600   0.477761519   0.751639851
  -0.275835600  -0.477761519   0.751639851
  new unit-cell volume =    204.7572 (a.u.)^3
  new positions in cryst coord
As       0.283819531   0.283819528   0.283819528
As      -0.283819531  -0.283819528  -0.283819528
  new positions in cart coord (alat unit)
As       0.000000097   0.000000000   0.639990203
As      -0.000000097   0.000000000  -0.639990203

     Ekin =     0.03043131 Ry    T = 1067.7 K  Etot =   -24.60588529
     new unit-cell volume =    204.75723 a.u.^3 (    30.34189 Ang^3 )

CELL_PARAMETERS (alat=  7.01033623)
   0.551671535   0.000000000   0.751639842
  -0.275835600   0.477761519   0.751639851
  -0.275835600  -0.477761519   0.751639851

ATOMIC_POSITIONS (crystal)
As       0.283819531   0.283819528   0.283819528
As      -0.283819531  -0.283819528  -0.283819528



     Writing output data file pwscf.save
     NEW-OLD atomic charge density approx. for the potential
     extrapolated charge    8.66611, renormalised to   10.00000

     total cpu time spent up to now is        1.2 secs

     per-process dynamical memory:     4.0 Mb

     Self-consistent Calculation

     iteration #  1     ecut=    25.00 Ry     beta=0.70
     Davidson diagonalization with overlap
     ethr =  1.00E-06,  avg # of iterations =  5.3

     total cpu time spent up to now is        1.3 secs

          k = 0.0000 0.0000 0.1663     band energies (ev):

    -5.6692   8.0157   8.5086   8.5086  11.9856  14.6677  15.0646  15.0646
    19.5486

          k =-0.1511-0.2616 0.2772     band energies (ev):

    -4.3984   2.6792   8.0235   8.3741  12.6927  14.0794  14.3838  17.2350
    19.3729

          k = 0.3021 0.5233-0.0554     band energies (ev):

    -2.5945  -0.5777   7.3160   8.7949  10.9073  14.6170  15.3459  17.5414
    21.8792

          k = 0.1511 0.2616 0.0554     band energies (ev):

    -4.9904   3.9868   7.3933  10.2296  11.5241  14.4894  16.1564  17.5093
    19.0452

          k =-0.3021 0.0000 0.3880     band energies (ev):

    -3.8646   3.8772   5.7794   6.4531   9.9796  13.7036  17.2296  17.7017
    20.3541

          k = 0.1511 0.7849 0.0554     band energies (ev):

    -1.7970   0.2786   4.2086   6.4696  10.9274  14.9610  16.6325  19.8115
    21.3476

          k = 0.0000 0.5233 0.1663     band energies (ev):

    -3.0641   0.7552   5.2051   9.1718  10.8999  15.6126  16.8860  17.0180
    19.7274

          k = 0.6042 0.0000-0.2772     band energies (ev):

    -2.1456   0.8031   5.8042   5.8197   8.4108  13.3674  19.6480  21.8297
    22.6388

          k = 0.0000 0.0000 0.4989     band energies (ev):

    -4.0945   2.8645   8.4070   8.4070  11.0900  12.7218  12.7218  15.5475
    21.5980

          k = 0.4532 0.7849 0.1663     band energies (ev):

    -2.8254   2.0723   4.3124   7.1160  10.1919  14.9716  15.4813  18.4999
    21.3794

     the Fermi energy is    12.7129 ev

     total energy              =     -25.36409294 Ry
     Harris-Foulkes estimate   =     -24.44607386 Ry
     estimated scf accuracy    <       0.00992642 Ry

     iteration #  2     ecut=    25.00 Ry     beta=0.70
     Davidson diagonalization with overlap
     ethr =  9.93E-05,  avg # of iterations =  2.9

     total cpu time spent up to now is        1.4 secs

          k = 0.0000 0.0000 0.1663     band energies (ev):

    -5.6431   7.8743   8.7328   8.7328  12.0607  14.5191  14.9598  14.9600
    18.9780

          k =-0.1511-0.2616 0.2772     band energies (ev):

    -4.3349   2.7122   7.7937   8.6576  12.5320  13.8480  14.0301  17.1366
    19.0154

          k = 0.3021 0.5233-0.0554     band energies (ev):

    -2.4801  -0.5693   7.4888   8.5088  10.5909  14.4695  14.9588  17.2290
    21.5803

          k = 0.1511 0.2616 0.0554     band energies (ev):

    -4.9665   4.1807   7.5275   9.9707  11.2528  14.3816  16.0653  17.3805
    18.7531

          k =-0.3021 0.0000 0.3880     band energies (ev):

    -3.7537   3.9722   5.5781   6.4928   9.5056  13.4200  17.2202  17.8408
    19.8716

          k = 0.1511 0.7849 0.0554     band energies (ev):

    -1.5813   0.3764   3.9831   6.0862  10.7015  14.8684  16.2759  19.7486
    21.2655

          k = 0.0000 0.5233 0.1663     band energies (ev):

    -2.9973   0.8979   5.1814   8.6911  10.7821  15.3700  16.5157  17.0743
    19.4103

          k = 0.6042 0.0000-0.2772     band energies (ev):

    -1.9976   1.0211   5.2892   5.8247   8.0406  13.0252  19.6107  21.5898
    22.7688

          k = 0.0000 0.0000 0.4989     band energies (ev):

    -3.9204   2.4446   8.6256   8.6256  11.2150  12.4607  12.4607  14.9429
    21.1676

          k = 0.4532 0.7849 0.1663     band energies (ev):

    -2.5502   1.8048   4.1126   7.2079   9.8382  14.8349  15.5010  18.4782
    20.7897

     the Fermi energy is    12.5183 ev

     total energy              =     -25.37482729 Ry
     Harris-Foulkes estimate   =     -25.37664236 Ry
     estimated scf accuracy    <       0.00396953 Ry

     iteration #  3     ecut=    25.00 Ry     beta=0.70
     Davidson diagonalization with overlap
     ethr =  3.97E-05,  avg # of iterations =  1.0

     total cpu time spent up to now is        1.4 secs

          k = 0.0000 0.0000 0.1663     band energies (ev):

    -5.7110   7.8595   8.6414   8.6414  11.9753  14.4785  14.9060  14.9061
    18.9891

          k =-0.1511-0.2616 0.2772     band energies (ev):

    -4.4082   2.6526   7.7648   8.5511  12.4884  13.8303  14.0332  17.0688
    19.0003

          k = 0.3021 0.5233-0.0554     band energies (ev):

    -2.5615  -0.6287   7.3986   8.4859  10.5775  14.4274  14.9636  17.2160
    21.5422

          k = 0.1511 0.2616 0.0554     band energies (ev):

    -5.0338   4.0958   7.4461   9.9537  11.2395  14.3190  16.0299  17.3483
    18.7026

          k =-0.3021 0.0000 0.3880     band energies (ev):

    -3.8339   3.9157   5.5292   6.4238   9.5231  13.3740  17.1620  17.7479
    19.8928

          k = 0.1511 0.7849 0.0554     band energies (ev):

    -1.6763   0.3031   3.9479   6.0810  10.6847  14.8117  16.2449  19.6953
    21.2273

          k = 0.0000 0.5233 0.1663     band energies (ev):

    -3.0704   0.8190   5.1127   8.7066  10.7480  15.3444  16.4875  16.9942
    19.4054

          k = 0.6042 0.0000-0.2772     band energies (ev):

    -2.0796   0.9187   5.3181   5.7575   8.0346  12.9862  19.5700  21.5649
    22.6957

          k = 0.0000 0.0000 0.4989     band energies (ev):

    -4.0116   2.4582   8.5300   8.5300  11.1004  12.4391  12.4391  14.9948
    21.1381

          k = 0.4532 0.7849 0.1663     band energies (ev):

    -2.6581   1.8079   4.0579   7.1301   9.8259  14.8009  15.4333  18.4155
    20.8042

     the Fermi energy is    12.4794 ev

     total energy              =     -25.37481544 Ry
     Harris-Foulkes estimate   =     -25.37508492 Ry
     estimated scf accuracy    <       0.00054793 Ry

     iteration #  4     ecut=    25.00 Ry     beta=0.70
     Davidson diagonalization with overlap
     ethr =  5.48E-06,  avg # of iterations =  1.8

     total cpu time spent up to now is        1.5 secs

          k = 0.0000 0.0000 0.1663     band energies (ev):

    -5.7438   7.8403   8.5977   8.5977  11.9379  14.4566  14.8816  14.8816
    18.9897

          k =-0.1511-0.2616 0.2772     band energies (ev):

    -4.4431   2.6208   7.7471   8.5030  12.4672  13.8143  14.0257  17.0414
    18.9882

          k = 0.3021 0.5233-0.0554     band energies (ev):

    -2.5996  -0.6594   7.3575   8.4711  10.5660  14.4053  14.9569  17.2035
    21.5252

          k = 0.1511 0.2616 0.0554     band energies (ev):

    -5.0665   4.0542   7.4076   9.9393  11.2256  14.2936  16.0061  17.3273
    18.6831

          k =-0.3021 0.0000 0.3880     band energies (ev):

    -3.8715   3.8819   5.5071   6.3907   9.5221  13.3568  17.1325  17.7070
    19.8915

          k = 0.1511 0.7849 0.0554     band energies (ev):

    -1.7202   0.2668   3.9302   6.0726  10.6684  14.7859  16.2320  19.6683
    21.2022

          k = 0.0000 0.5233 0.1663     band energies (ev):

    -3.1055   0.7802   5.0824   8.7048  10.7253  15.3286  16.4758  16.9584
    19.3941

          k = 0.6042 0.0000-0.2772     band energies (ev):

    -2.1191   0.8738   5.3201   5.7254   8.0258  12.9723  19.5434  21.5478
    22.6578

          k = 0.0000 0.0000 0.4989     band energies (ev):

    -4.0533   2.4535   8.4857   8.4857  11.0571  12.4249  12.4249  15.0032
    21.1279

          k = 0.4532 0.7849 0.1663     band energies (ev):

    -2.7061   1.7969   4.0349   7.0937   9.8159  14.7795  15.4006  18.3858
    20.8064

     the Fermi energy is    12.4602 ev

     total energy              =     -25.37485827 Ry
     Harris-Foulkes estimate   =     -25.37487516 Ry
     estimated scf accuracy    <       0.00003007 Ry

     iteration #  5     ecut=    25.00 Ry     beta=0.70
     Davidson diagonalization with overlap
     ethr =  3.01E-07,  avg # of iterations =  2.9

     total cpu time spent up to now is        1.6 secs

          k = 0.0000 0.0000 0.1663     band energies (ev):

    -5.7545   7.8329   8.5834   8.5834  11.9262  14.4491  14.8738  14.8738
    18.9894

          k =-0.1511-0.2616 0.2772     band energies (ev):

    -4.4544   2.6101   7.7410   8.4876  12.4603  13.8083  14.0225  17.0330
    18.9838

          k = 0.3021 0.5233-0.0554     band energies (ev):

    -2.6119  -0.6695   7.3443   8.4659  10.5618  14.3979  14.9539  17.1988
    21.5197

          k = 0.1511 0.2616 0.0554     band energies (ev):

    -5.0771   4.0405   7.3951   9.9340  11.2203  14.2858  15.9976  17.3199
    18.6770

          k =-0.3021 0.0000 0.3880     band energies (ev):

    -3.8837   3.8703   5.5000   6.3799   9.5209  13.3517  17.1227  17.6940
    19.8899

          k = 0.1511 0.7849 0.0554     band energies (ev):

    -1.7344   0.2549   3.9244   6.0693  10.6623  14.7776  16.2281  19.6592
    21.1933

          k = 0.0000 0.5233 0.1663     band energies (ev):

    -3.1169   0.7675   5.0729   8.7032  10.7173  15.3232  16.4722  16.9470
    19.3896

          k = 0.6042 0.0000-0.2772     band energies (ev):

    -2.1320   0.8596   5.3195   5.7150   8.0223  12.9683  19.5340  21.5416
    22.6451

          k = 0.0000 0.0000 0.4989     band energies (ev):

    -4.0666   2.4509   8.4714   8.4714  11.0441  12.4201  12.4201  15.0044
    21.1252

          k = 0.4532 0.7849 0.1663     band energies (ev):

    -2.7214   1.7921   4.0277   7.0820   9.8123  14.7721  15.3899  18.3761
    20.8068

     the Fermi energy is    12.4539 ev

     total energy              =     -25.37487841 Ry
     Harris-Foulkes estimate   =     -25.37487884 Ry
     estimated scf accuracy    <       0.00000244 Ry

     iteration #  6     ecut=    25.00 Ry     beta=0.70
     Davidson diagonalization with overlap
     ethr =  2.44E-08,  avg # of iterations =  1.1

     total cpu time spent up to now is        1.6 secs

          k = 0.0000 0.0000 0.1663     band energies (ev):

    -5.7540   7.8329   8.5841   8.5841  11.9267  14.4492  14.8743  14.8743
    18.9893

          k =-0.1511-0.2616 0.2772     band energies (ev):

    -4.4539   2.6105   7.7411   8.4884  12.4606  13.8083  14.0225  17.0334
    18.9839

          k = 0.3021 0.5233-0.0554     band energies (ev):

    -2.6113  -0.6691   7.3449   8.4660  10.5619  14.3981  14.9539  17.1988
    21.5199

          k = 0.1511 0.2616 0.0554     band energies (ev):

    -5.0766   4.0411   7.3957   9.9340  11.2203  14.2862  15.9979  17.3202
    18.6773

          k =-0.3021 0.0000 0.3880     band energies (ev):

    -3.8831   3.8707   5.5003   6.3804   9.5206  13.3520  17.1232  17.6946
    19.8897

          k = 0.1511 0.7849 0.0554     band energies (ev):

    -1.7337   0.2554   3.9247   6.0692  10.6623  14.7780  16.2283  19.6595
    21.1936

          k = 0.0000 0.5233 0.1663     band energies (ev):

    -3.1164   0.7681   5.0734   8.7030  10.7174  15.3234  16.4724  16.9476
    19.3895

          k = 0.6042 0.0000-0.2772     band energies (ev):

    -2.1314   0.8603   5.3192   5.7155   8.0223  12.9685  19.5344  21.5417
    22.6455

          k = 0.0000 0.0000 0.4989     band energies (ev):

    -4.0660   2.4507   8.4721   8.4722  11.0449  12.4203  12.4203  15.0038
    21.1253

          k = 0.4532 0.7849 0.1663     band energies (ev):

    -2.7206   1.7921   4.0281   7.0826   9.8124  14.7724  15.3903  18.3765
    20.8066

     the Fermi energy is    12.4542 ev

     total energy              =     -25.37487765 Ry
     Harris-Foulkes estimate   =     -25.37487843 Ry
     estimated scf accuracy    <       0.00000142 Ry

     iteration #  7     ecut=    25.00 Ry     beta=0.70
     Davidson diagonalization with overlap
     ethr =  1.42E-08,  avg # of iterations =  1.9

     total cpu time spent up to now is        1.7 secs

     End of self-consistent calculation

          k = 0.0000 0.0000 0.1663 (   531 PWs)   bands (ev):

    -5.7521   7.8337   8.5867   8.5867  11.9287  14.4501  14.8758  14.8759
    18.9891

          k =-0.1511-0.2616 0.2772 (   522 PWs)   bands (ev):

    -4.4519   2.6123   7.7419   8.4913  12.4617  13.8089  14.0227  17.0350
    18.9844

          k = 0.3021 0.5233-0.0554 (   520 PWs)   bands (ev):

    -2.6091  -0.6674   7.3474   8.4666  10.5623  14.3993  14.9541  17.1994
    21.5209

          k = 0.1511 0.2616 0.0554 (   525 PWs)   bands (ev):

    -5.0748   4.0435   7.3980   9.9345  11.2208  14.2877  15.9991  17.3215
    18.6784

          k =-0.3021 0.0000 0.3880 (   519 PWs)   bands (ev):

    -3.8810   3.8726   5.5014   6.3824   9.5204  13.3530  17.1250  17.6970
    19.8893

          k = 0.1511 0.7849 0.0554 (   510 PWs)   bands (ev):

    -1.7311   0.2575   3.9256   6.0695  10.6629  14.7795  16.2290  19.6611
    21.1950

          k = 0.0000 0.5233 0.1663 (   521 PWs)   bands (ev):

    -3.1143   0.7703   5.0752   8.7028  10.7185  15.3242  16.4731  16.9498
    19.3899

          k = 0.6042 0.0000-0.2772 (   510 PWs)   bands (ev):

    -2.1291   0.8630   5.3188   5.7174   8.0224  12.9694  19.5359  21.5425
    22.6477

          k = 0.0000 0.0000 0.4989 (   522 PWs)   bands (ev):

    -4.0635   2.4506   8.4748   8.4748  11.0474  12.4211  12.4211  15.0026
    21.1258

          k = 0.4532 0.7849 0.1663 (   520 PWs)   bands (ev):

    -2.7178   1.7924   4.0293   7.0847   9.8127  14.7736  15.3921  18.3781
    20.8063

     the Fermi energy is    12.4552 ev

!    total energy              =     -25.37487783 Ry
     Harris-Foulkes estimate   =     -25.37487783 Ry
     estimated scf accuracy    <          6.2E-10 Ry

     convergence has been achieved in   7 iterations

     Forces acting on atoms (Ry/au):

     atom    1 type  1   force =    -0.00000000    0.00000000   -0.15968749
     atom    2 type  1   force =     0.00000000    0.00000000    0.15968749

     Total force =     0.225832     Total SCF correction =     0.000010


     entering subroutine stress ...

          total   stress  (Ry/bohr**3)                   (kbar)     P=  521.22
   0.00397347  -0.00000000  -0.00000000        584.52     -0.00     -0.00
   0.00000000   0.00397347  -0.00000000          0.00    584.52     -0.00
  -0.00000000   0.00000000   0.00268268         -0.00      0.00    394.64


     Entering Dynamics;  it =     3   time =  0.01452 pico-seconds

  new lattice vectors (alat unit) :
   0.557922085   0.000000000   0.696905675
  -0.278960885   0.483174652   0.696905702
  -0.278960885  -0.483174652   0.696905702
  new unit-cell volume =    194.1733 (a.u.)^3
  new positions in cryst coord
As       0.275031868   0.275031861   0.275031861
As      -0.275031868  -0.275031861  -0.275031861
  new positions in cart coord (alat unit)
As       0.000000090   0.000000000   0.575013815
As      -0.000000090  -0.000000000  -0.575013815

     Ekin =     0.07434707 Ry    T = 1838.1 K  Etot =   -24.60457496
     new unit-cell volume =    194.17326 a.u.^3 (    28.77351 Ang^3 )

CELL_PARAMETERS (alat=  7.01033623)
   0.557922085   0.000000000   0.696905675
  -0.278960885   0.483174652   0.696905702
  -0.278960885  -0.483174652   0.696905702

ATOMIC_POSITIONS (crystal)
As       0.275031868   0.275031861   0.275031861
As      -0.275031868  -0.275031861  -0.275031861



     Writing output data file pwscf.save
     NEW-OLD atomic charge density approx. for the potential
     extrapolated charge    9.45494, renormalised to   10.00000

     total cpu time spent up to now is        1.8 secs

     per-process dynamical memory:     4.0 Mb

     Self-consistent Calculation

     iteration #  1     ecut=    25.00 Ry     beta=0.70
     Davidson diagonalization with overlap
     ethr =  1.00E-06,  avg # of iterations =  6.8

     total cpu time spent up to now is        1.9 secs

          k = 0.0000 0.0000 0.1794     band energies (ev):

    -4.9750   9.2319   9.4682   9.4682  13.0720  16.1687  16.2684  16.2685
    19.2932

          k =-0.1494-0.2587 0.2989     band energies (ev):

    -3.5639   3.2409   9.5445  10.0992  13.2754  14.0796  14.8467  18.0759
    19.4516

          k = 0.2987 0.5174-0.0598     band energies (ev):

    -1.7975   0.1438   8.6894   9.9489  11.3051  15.4528  16.1406  19.3052
    22.9594

          k = 0.1494 0.2587 0.0598     band energies (ev):

    -4.3617   5.1020   8.3401  10.8007  12.6709  16.4341  17.1964  18.6265
    20.2164

          k =-0.2987 0.0000 0.4185     band energies (ev):

    -2.8051   4.9500   6.7914   6.9658   9.8945  14.8355  18.0298  18.4467
    20.0066

          k = 0.1494 0.7761 0.0598     band energies (ev):

    -0.4491   0.9900   4.6351   7.1669  11.7482  15.2521  17.3187  21.4543
    22.3645

          k = 0.0000 0.5174 0.1794     band energies (ev):

    -2.3422   1.6634   6.3836   9.3530  12.4738  16.2263  18.1234  18.4166
    20.3671

          k = 0.5975 0.0000-0.2989     band energies (ev):

    -1.1654   2.4039   5.6827   6.3630   8.6807  15.0628  20.5963  22.0608
    23.5963

          k = 0.0000 0.0000 0.5381     band energies (ev):

    -2.6885   3.3809   9.3588   9.3588  11.6950  12.7267  12.7267  15.0623
    23.0584

          k = 0.4481 0.7761 0.1794     band energies (ev):

    -1.0169   2.2445   4.8905   7.9242  10.0718  15.0606  16.1294  19.7449
    22.0683

     the Fermi energy is    13.2617 ev

     total energy              =     -25.37635635 Ry
     Harris-Foulkes estimate   =     -24.96963599 Ry
     estimated scf accuracy    <       0.00119047 Ry

     iteration #  2     ecut=    25.00 Ry     beta=0.70
     Davidson diagonalization with overlap
     ethr =  1.19E-05,  avg # of iterations =  2.6

     total cpu time spent up to now is        2.0 secs

          k = 0.0000 0.0000 0.1794     band energies (ev):

    -5.0550   9.1493   9.4407   9.4407  13.0155  16.0521  16.1699  16.1699
    19.0572

          k =-0.1494-0.2587 0.2989     band energies (ev):

    -3.6348   3.1662   9.4334  10.1138  13.1443  13.8981  14.7244  17.9257
    19.2440

          k = 0.2987 0.5174-0.0598     band energies (ev):

    -1.8555   0.0615   8.6507   9.8274  11.1256  15.2969  16.0288  19.1950
    22.8355

          k = 0.1494 0.2587 0.0598     band energies (ev):

    -4.4419   5.0742   8.2879  10.6498  12.5258  16.3899  17.0910  18.5188
    20.0568

          k =-0.2987 0.0000 0.4185     band energies (ev):

    -2.8637   4.9021   6.6883   6.8858   9.6825  14.6806  17.9483  18.4094
    19.7795

          k = 0.1494 0.7761 0.0598     band energies (ev):

    -0.4687   0.9252   4.4814   7.0051  11.6336  15.1534  17.1121  21.4052
    22.2945

          k = 0.0000 0.5174 0.1794     band energies (ev):

    -2.4114   1.6124   6.3059   9.1486  12.3904  16.1071  18.0730  18.2319
    20.1968

          k = 0.5975 0.0000-0.2989     band energies (ev):

    -1.2141   2.4100   5.4531   6.2782   8.5085  14.8907  20.5294  21.9317
    23.5972

          k = 0.0000 0.0000 0.5381     band energies (ev):

    -2.7282   3.2203   9.3291   9.3291  11.6627  12.5771  12.5771  14.7756
    22.8777

          k = 0.4481 0.7761 0.1794     band energies (ev):

    -1.0049   2.0819   4.7638   7.8565   9.8939  14.9540  16.0532  19.6445
    21.8507

     the Fermi energy is    13.1300 ev

     total energy              =     -25.37727087 Ry
     Harris-Foulkes estimate   =     -25.37745425 Ry
     estimated scf accuracy    <       0.00043020 Ry

     iteration #  3     ecut=    25.00 Ry     beta=0.70
     Davidson diagonalization with overlap
     ethr =  4.30E-06,  avg # of iterations =  1.0

     total cpu time spent up to now is        2.0 secs

          k = 0.0000 0.0000 0.1794     band energies (ev):

    -5.0745   9.1340   9.4140   9.4140  12.9938  16.0375  16.1540  16.1540
    19.0578

          k =-0.1494-0.2587 0.2989     band energies (ev):

    -3.6556   3.1470   9.4194  10.0799  13.1332  13.8962  14.7126  17.9130
    19.2400

          k = 0.2987 0.5174-0.0598     band energies (ev):

    -1.8784   0.0434   8.6252   9.8132  11.1229  15.2900  16.0145  19.1810
    22.8183

          k = 0.1494 0.2587 0.0598     band energies (ev):

    -4.4613   5.0484   8.2647  10.6418  12.5172  16.3658  17.0770  18.5051
    20.0457

          k =-0.2987 0.0000 0.4185     band energies (ev):

    -2.8861   4.8802   6.6707   6.8663   9.6848  14.6683  17.9300  18.3827
    19.7840

          k = 0.1494 0.7761 0.0598     band energies (ev):

    -0.4967   0.9043   4.4723   6.9981  11.6210  15.1369  17.1077  21.3825
    22.2747

          k = 0.0000 0.5174 0.1794     band energies (ev):

    -2.4324   1.5896   6.2857   9.1481  12.3734  16.0948  18.0498  18.2240
    20.1914

          k = 0.5975 0.0000-0.2989     band energies (ev):

    -1.2376   2.3771   5.4576   6.2594   8.5033  14.8815  20.5097  21.9206
    23.5671

          k = 0.0000 0.0000 0.5381     band energies (ev):

    -2.7535   3.2147   9.3014   9.3014  11.6320  12.5697  12.5697  14.7897
    22.8707

          k = 0.4481 0.7761 0.1794     band energies (ev):

    -1.0381   2.0777   4.7488   7.8350   9.8894  14.9401  16.0326  19.6299
    21.8494

     the Fermi energy is    13.1191 ev

     total energy              =     -25.37726243 Ry
     Harris-Foulkes estimate   =     -25.37729342 Ry
     estimated scf accuracy    <       0.00006046 Ry

     iteration #  4     ecut=    25.00 Ry     beta=0.70
     Davidson diagonalization with overlap
     ethr =  6.05E-07,  avg # of iterations =  2.2

     total cpu time spent up to now is        2.1 secs

          k = 0.0000 0.0000 0.1794     band energies (ev):

    -5.0882   9.1191   9.3953   9.3953  12.9800  16.0271  16.1436  16.1436
    19.0561

          k =-0.1494-0.2587 0.2989     band energies (ev):

    -3.6700   3.1325   9.4083  10.0579  13.1252  13.8906  14.7020  17.9066
    19.2382

          k = 0.2987 0.5174-0.0598     band energies (ev):

    -1.8940   0.0298   8.6081   9.8032  11.1182  15.2816  16.0040  19.1685
    22.8080

          k = 0.1494 0.2587 0.0598     band energies (ev):

    -4.4751   5.0299   8.2485  10.6349  12.5084  16.3513  17.0642  18.4934
    20.0381

          k =-0.2987 0.0000 0.4185     band energies (ev):

    -2.9016   4.8629   6.6592   6.8526   9.6826  14.6622  17.9165  18.3659
    19.7818

          k = 0.1494 0.7761 0.0598     band energies (ev):

    -0.5155   0.8891   4.4655   6.9910  11.6094  15.1260  17.1054  21.3660
    22.2585

          k = 0.0000 0.5174 0.1794     band energies (ev):

    -2.4470   1.5733   6.2729   9.1441  12.3595  16.0854  18.0348  18.2185
    20.1838

          k = 0.5975 0.0000-0.2989     band energies (ev):

    -1.2541   2.3566   5.4554   6.2462   8.4980  14.8769  20.4934  21.9105
    23.5461

          k = 0.0000 0.0000 0.5381     band energies (ev):

    -2.7704   3.2066   9.2828   9.2828  11.6165  12.5627  12.5627  14.7928
    22.8670

          k = 0.4481 0.7761 0.1794     band energies (ev):

    -1.0591   2.0697   4.7394   7.8202   9.8848  14.9284  16.0190  19.6178
    21.8485

     the Fermi energy is    13.1112 ev

     total energy              =     -25.37727292 Ry
     Harris-Foulkes estimate   =     -25.37727475 Ry
     estimated scf accuracy    <       0.00000362 Ry

     iteration #  5     ecut=    25.00 Ry     beta=0.70
     Davidson diagonalization with overlap
     ethr =  3.62E-08,  avg # of iterations =  1.3

     total cpu time spent up to now is        2.2 secs

          k = 0.0000 0.0000 0.1794     band energies (ev):

    -5.0860   9.1211   9.3983   9.3983  12.9824  16.0286  16.1454  16.1454
    19.0561

          k =-0.1494-0.2587 0.2989     band energies (ev):

    -3.6677   3.1348   9.4099  10.0617  13.1265  13.8911  14.7034  17.9078
    19.2385

          k = 0.2987 0.5174-0.0598     band energies (ev):

    -1.8914   0.0319   8.6109   9.8047  11.1186  15.2826  16.0056  19.1702
    22.8098

          k = 0.1494 0.2587 0.0598     band energies (ev):

    -4.4729   5.0329   8.2511  10.6358  12.5094  16.3539  17.0660  18.4951
    20.0393

          k =-0.2987 0.0000 0.4185     band energies (ev):

    -2.8990   4.8655   6.6610   6.8548   9.6825  14.6634  17.9186  18.3688
    19.7815

          k = 0.1494 0.7761 0.0598     band energies (ev):

    -0.5124   0.8915   4.4665   6.9919  11.6109  15.1278  17.1058  21.3686
    22.2609

          k = 0.0000 0.5174 0.1794     band energies (ev):

    -2.4447   1.5759   6.2751   9.1443  12.3614  16.0869  18.0374  18.2194
    20.1846

          k = 0.5975 0.0000-0.2989     band energies (ev):

    -1.2515   2.3602   5.4552   6.2483   8.4987  14.8778  20.4958  21.9118
    23.5495

          k = 0.0000 0.0000 0.5381     band energies (ev):

    -2.7675   3.2074   9.2859   9.2859  11.6196  12.5636  12.5636  14.7915
    22.8677

          k = 0.4481 0.7761 0.1794     band energies (ev):

    -1.0555   2.0704   4.7410   7.8226   9.8853  14.9301  16.0212  19.6195
    21.8486

     the Fermi energy is    13.1125 ev

     total energy              =     -25.37727311 Ry
     Harris-Foulkes estimate   =     -25.37727323 Ry
     estimated scf accuracy    <       0.00000020 Ry

     iteration #  6     ecut=    25.00 Ry     beta=0.70
     Davidson diagonalization with overlap
     ethr =  2.03E-09,  avg # of iterations =  2.9

     total cpu time spent up to now is        2.2 secs

     End of self-consistent calculation

          k = 0.0000 0.0000 0.1794 (   531 PWs)   bands (ev):

    -5.0853   9.1217   9.3993   9.3993  12.9832  16.0291  16.1461  16.1461
    19.0560

          k =-0.1494-0.2587 0.2989 (   522 PWs)   bands (ev):

    -3.6669   3.1355   9.4104  10.0630  13.1269  13.8912  14.7038  17.9083
    19.2387

          k = 0.2987 0.5174-0.0598 (   520 PWs)   bands (ev):

    -1.8905   0.0326   8.6119   9.8052  11.1187  15.2829  16.0062  19.1708
    22.8104

          k = 0.1494 0.2587 0.0598 (   525 PWs)   bands (ev):

    -4.4721   5.0339   8.2520  10.6361  12.5097  16.3548  17.0666  18.4956
    20.0396

          k =-0.2987 0.0000 0.4185 (   519 PWs)   bands (ev):

    -2.8982   4.8664   6.6617   6.8556   9.6824  14.6638  17.9194  18.3698
    19.7814

          k = 0.1494 0.7761 0.0598 (   510 PWs)   bands (ev):

    -0.5113   0.8923   4.4668   6.9921  11.6114  15.1285  17.1060  21.3695
    22.2617

          k = 0.0000 0.5174 0.1794 (   521 PWs)   bands (ev):

    -2.4439   1.5768   6.2759   9.1443  12.3621  16.0874  18.0383  18.2197
    20.1848

          k = 0.5975 0.0000-0.2989 (   510 PWs)   bands (ev):

    -1.2505   2.3615   5.4550   6.2490   8.4988  14.8781  20.4966  21.9122
    23.5508

          k = 0.0000 0.0000 0.5381 (   522 PWs)   bands (ev):

    -2.7665   3.2076   9.2869   9.2869  11.6207  12.5640  12.5640  14.7909
    22.8680

          k = 0.4481 0.7761 0.1794 (   520 PWs)   bands (ev):

    -1.0542   2.0706   4.7415   7.8235   9.8855  14.9307  16.0220  19.6201
    21.8486

     the Fermi energy is    13.1129 ev

!    total energy              =     -25.37727317 Ry
     Harris-Foulkes estimate   =     -25.37727318 Ry
     estimated scf accuracy    <       0.00000002 Ry

     convergence has been achieved in   6 iterations

     Forces acting on atoms (Ry/au):

     atom    1 type  1   force =    -0.00000000    0.00000000   -0.09622870
     atom    2 type  1   force =     0.00000000    0.00000000    0.09622870

     Total force =     0.136088     Total SCF correction =     0.000088


     entering subroutine stress ...

          total   stress  (Ry/bohr**3)                   (kbar)     P=  558.35
   0.00376446   0.00000000  -0.00000000        553.77      0.00     -0.00
   0.00000000   0.00376446  -0.00000000          0.00    553.77     -0.00
  -0.00000000  -0.00000000   0.00385783         -0.00     -0.00    567.51


     Entering Dynamics;  it =     4   time =  0.02178 pico-seconds

  new lattice vectors (alat unit) :
   0.564948846   0.000000000   0.730143398
  -0.282474275   0.489260005   0.730143433
  -0.282474275  -0.489260005   0.730143433
  new unit-cell volume =    208.5906 (a.u.)^3
  new positions in cryst coord
As       0.262508385   0.262508377   0.262508377
As      -0.262508385  -0.262508377  -0.262508377
  new positions in cart coord (alat unit)
As       0.000000083   0.000000000   0.575006300
As      -0.000000083  -0.000000000  -0.575006300

     Ekin =     0.10396525 Ry    T = 2441.3 K  Etot =   -24.61332630
     new unit-cell volume =    208.59060 a.u.^3 (    30.90994 Ang^3 )

CELL_PARAMETERS (alat=  7.01033623)
   0.564948846   0.000000000   0.730143398
  -0.282474275   0.489260005   0.730143433
  -0.282474275  -0.489260005   0.730143433

ATOMIC_POSITIONS (crystal)
As       0.262508385   0.262508377   0.262508377
As      -0.262508385  -0.262508377  -0.262508377



     Writing output data file pwscf.save
     NEW-OLD atomic charge density approx. for the potential
     extrapolated charge   10.69115, renormalised to   10.00000

     total cpu time spent up to now is        2.4 secs

     per-process dynamical memory:     4.0 Mb

     Self-consistent Calculation

     iteration #  1     ecut=    25.00 Ry     beta=0.70
     Davidson diagonalization with overlap
     ethr =  1.00E-06,  avg # of iterations =  8.5

     total cpu time spent up to now is        2.5 secs

          k = 0.0000 0.0000 0.1712     band energies (ev):

    -5.5091   7.1463   8.7498   8.7498  11.2924  15.1113  15.1113  15.2148
    17.2730

          k =-0.1475-0.2555 0.2853     band energies (ev):

    -4.1419   2.2664   7.8820   9.8724  11.7151  11.7670  13.1224  17.1116
    18.0370

          k = 0.2950 0.5110-0.0571     band energies (ev):

    -2.3252  -0.7470   8.1140   8.4993   9.5743  13.2217  14.5192  16.5088
    21.7425

          k = 0.1475 0.2555 0.0571     band energies (ev):

    -4.8995   4.1022   7.6362   9.1469  11.0837  14.5131  15.7537  16.4644
    17.5244

          k =-0.2950 0.0000 0.3995     band energies (ev):

    -3.4218   3.4477   6.0453   6.3171   7.8838  14.0453  16.6193  17.0489
    17.5001

          k = 0.1475 0.7665 0.0571     band energies (ev):

    -1.0797   0.1596   3.7206   5.6368  10.1903  13.8823  15.9376  19.8119
    20.0477

          k = 0.0000 0.5110 0.1712     band energies (ev):

    -2.9326   0.8339   5.6646   7.5387  11.0529  13.8859  16.4869  16.8671
    18.1221

          k = 0.5900 0.0000-0.2853     band energies (ev):

    -1.8526   1.9785   3.7123   5.7247   7.1163  13.8893  18.5318  19.2647
    21.6785

          k = 0.0000 0.0000 0.5136     band energies (ev):

    -3.2692   1.5255   8.9001   8.9001  11.0812  11.2469  11.2469  12.9309
    21.1286

          k = 0.4425 0.7665 0.1712     band energies (ev):

    -1.4173   0.3799   4.2188   7.3006   8.6454  13.5734  15.0452  18.3093
    20.0819

     the Fermi energy is    11.7029 ev

     total energy              =     -25.43947903 Ry
     Harris-Foulkes estimate   =     -25.95109739 Ry
     estimated scf accuracy    <       0.00169023 Ry

     iteration #  2     ecut=    25.00 Ry     beta=0.70
     Davidson diagonalization with overlap
     ethr =  1.69E-05,  avg # of iterations =  2.9

     total cpu time spent up to now is        2.6 secs

          k = 0.0000 0.0000 0.1712     band energies (ev):

    -5.4292   7.1378   8.7810   8.7810  11.3314  15.2090  15.2092  15.2937
    17.5421

          k =-0.1475-0.2555 0.2853     band energies (ev):

    -4.0702   2.3110   7.9755   9.8662  11.8633  11.9019  13.1933  17.3160
    18.1758

          k = 0.2950 0.5110-0.0571     band energies (ev):

    -2.2665  -0.6827   8.1829   8.6096   9.7277  13.3196  14.6279  16.5710
    21.9248

          k = 0.1475 0.2555 0.0571     band energies (ev):

    -4.8210   4.1062   7.7018   9.2574  11.1996  14.5183  15.8912  16.5444
    17.7188

          k =-0.2950 0.0000 0.3995     band energies (ev):

    -3.3610   3.4566   6.1431   6.4118   8.0532  14.3138  16.6851  17.0633
    17.6410

          k = 0.1475 0.7665 0.0571     band energies (ev):

    -1.0618   0.2066   3.8954   5.7828  10.2592  13.9622  16.2344  19.8260
    20.0424

          k = 0.0000 0.5110 0.1712     band energies (ev):

    -2.8666   0.8668   5.7794   7.7022  11.0950  13.9844  16.5571  17.0845
    18.2405

          k = 0.5900 0.0000-0.2853     band energies (ev):

    -1.8148   1.9640   3.9135   5.8271   7.2562  14.1735  18.5472  19.3100
    21.6204

          k = 0.0000 0.0000 0.5136     band energies (ev):

    -3.2168   1.6052   8.9496   8.9496  11.1644  11.3761  11.3761  13.1536
    21.3567

          k = 0.4425 0.7665 0.1712     band energies (ev):

    -1.4195   0.4790   4.3709   7.3928   8.8064  13.6385  15.1183  18.3753
    20.3272

     the Fermi energy is    11.8484 ev

     total energy              =     -25.44104332 Ry
     Harris-Foulkes estimate   =     -25.44125346 Ry
     estimated scf accuracy    <       0.00052917 Ry

     iteration #  3     ecut=    25.00 Ry     beta=0.70
     Davidson diagonalization with overlap
     ethr =  5.29E-06,  avg # of iterations =  1.0

     total cpu time spent up to now is        2.6 secs

          k = 0.0000 0.0000 0.1712     band energies (ev):

    -5.4088   7.1612   8.8059   8.8059  11.3538  15.2297  15.2298  15.3138
    17.5405

          k =-0.1475-0.2555 0.2853     band energies (ev):

    -4.0488   2.3329   7.9916   9.9004  11.8684  11.9159  13.2107  17.3319
    18.1853

          k = 0.2950 0.5110-0.0571     band energies (ev):

    -2.2434  -0.6622   8.2062   8.6245   9.7372  13.3330  14.6451  16.5900
    21.9377

          k = 0.1475 0.2555 0.0571     band energies (ev):

    -4.8006   4.1333   7.7237   9.2709  11.2120  14.5445  15.9096  16.5625
    17.7247

          k =-0.2950 0.0000 0.3995     band energies (ev):

    -3.3381   3.4796   6.1656   6.4305   8.0562  14.3217  16.7065  17.0959
    17.6429

          k = 0.1475 0.7665 0.0571     band energies (ev):

    -1.0338   0.2287   3.9057   5.7932  10.2762  13.9821  16.2368  19.8518
    20.0695

          k = 0.0000 0.5110 0.1712     band energies (ev):

    -2.8448   0.8912   5.7990   7.7073  11.1153  14.0003  16.5806  17.0961
    18.2505

          k = 0.5900 0.0000-0.2853     band energies (ev):

    -1.7903   1.9991   3.9123   5.8452   7.2669  14.1783  18.5716  19.3288
    21.6538

          k = 0.0000 0.0000 0.5136     band energies (ev):

    -3.1918   1.6186   8.9744   8.9744  11.1948  11.3889  11.3889  13.1469
    21.3663

          k = 0.4425 0.7665 0.1712     band energies (ev):

    -1.3850   0.4870   4.3853   7.4125   8.8162  13.6575  15.1399  18.3939
    20.3345

     the Fermi energy is    11.8555 ev

     total energy              =     -25.44103730 Ry
     Harris-Foulkes estimate   =     -25.44107109 Ry
     estimated scf accuracy    <       0.00007798 Ry

     iteration #  4     ecut=    25.00 Ry     beta=0.70
     Davidson diagonalization with overlap
     ethr =  7.80E-07,  avg # of iterations =  2.1

     total cpu time spent up to now is        2.7 secs

          k = 0.0000 0.0000 0.1712     band energies (ev):

    -5.3952   7.1805   8.8223   8.8223  11.3683  15.2431  15.2432  15.3249
    17.5419

          k =-0.1475-0.2555 0.2853     band energies (ev):

    -4.0348   2.3487   8.0034   9.9181  11.8795  11.9255  13.2245  17.3391
    18.1949

          k = 0.2950 0.5110-0.0571     band energies (ev):

    -2.2287  -0.6476   8.2200   8.6351   9.7461  13.3464  14.6570  16.6054
    21.9448

          k = 0.1475 0.2555 0.0571     band energies (ev):

    -4.7869   4.1515   7.7380   9.2816  11.2228  14.5631  15.9200  16.5774
    17.7308

          k =-0.2950 0.0000 0.3995     band energies (ev):

    -3.3235   3.4978   6.1768   6.4430   8.0645  14.3235  16.7218  17.1130
    17.6532

          k = 0.1475 0.7665 0.0571     band energies (ev):

    -1.0167   0.2443   3.9132   5.8023  10.2901  13.9957  16.2373  19.8698
    20.0892

          k = 0.0000 0.5110 0.1712     band energies (ev):

    -2.8305   0.9076   5.8099   7.7155  11.1302  14.0133  16.5964  17.1007
    18.2622

          k = 0.5900 0.0000-0.2853     band energies (ev):

    -1.7743   2.0177   3.9189   5.8571   7.2760  14.1794  18.5905  19.3442
    21.6772

          k = 0.0000 0.0000 0.5136     band energies (ev):

    -3.1768   1.6325   8.9891   8.9891  11.2062  11.4004  11.4004  13.1518
    21.3721

          k = 0.4425 0.7665 0.1712     band energies (ev):

    -1.3671   0.5003   4.3937   7.4250   8.8247  13.6728  15.1530  18.4086
    20.3390

     the Fermi energy is    11.8663 ev

     total energy              =     -25.44104660 Ry
     Harris-Foulkes estimate   =     -25.44104684 Ry
     estimated scf accuracy    <       0.00000065 Ry

     iteration #  5     ecut=    25.00 Ry     beta=0.70
     Davidson diagonalization with overlap
     ethr =  6.51E-09,  avg # of iterations =  2.8

     total cpu time spent up to now is        2.8 secs

          k = 0.0000 0.0000 0.1712     band energies (ev):

    -5.3957   7.1795   8.8217   8.8217  11.3679  15.2426  15.2427  15.3248
    17.5417

          k =-0.1475-0.2555 0.2853     band energies (ev):

    -4.0352   2.3480   8.0030   9.9177  11.8786  11.9253  13.2238  17.3392
    18.1943

          k = 0.2950 0.5110-0.0571     band energies (ev):

    -2.2292  -0.6482   8.2196   8.6347   9.7457  13.3456  14.6566  16.6046
    21.9447

          k = 0.1475 0.2555 0.0571     band energies (ev):

    -4.7874   4.1508   7.7375   9.2812  11.2223  14.5624  15.9198  16.5766
    17.7305

          k =-0.2950 0.0000 0.3995     band energies (ev):

    -3.3240   3.4969   6.1767   6.4425   8.0638  14.3238  16.7212  17.1128
    17.6522

          k = 0.1475 0.7665 0.0571     band energies (ev):

    -1.0172   0.2437   3.9129   5.8019  10.2894  13.9952  16.2375  19.8691
    20.0883

          k = 0.0000 0.5110 0.1712     band energies (ev):

    -2.8310   0.9070   5.8097   7.7149  11.1295  14.0127  16.5958  17.1009
    18.2614

          k = 0.5900 0.0000-0.2853     band energies (ev):

    -1.7748   2.0174   3.9182   5.8567   7.2756  14.1796  18.5896  19.3435
    21.6763

          k = 0.0000 0.0000 0.5136     band energies (ev):

    -3.1772   1.6317   8.9887   8.9887  11.2067  11.3998  11.3998  13.1511
    21.3722

          k = 0.4425 0.7665 0.1712     band energies (ev):

    -1.3674   0.4993   4.3936   7.4246   8.8243  13.6721  15.1527  18.4080
    20.3390

     the Fermi energy is    11.8655 ev

     total energy              =     -25.44104710 Ry
     Harris-Foulkes estimate   =     -25.44104722 Ry
     estimated scf accuracy    <       0.00000021 Ry

     iteration #  6     ecut=    25.00 Ry     beta=0.70
     Davidson diagonalization with overlap
     ethr =  2.06E-09,  avg # of iterations =  2.1

     total cpu time spent up to now is        2.8 secs

     End of self-consistent calculation

          k = 0.0000 0.0000 0.1712 (   531 PWs)   bands (ev):

    -5.3964   7.1786   8.8207   8.8207  11.3672  15.2418  15.2418  15.3242
    17.5419

          k =-0.1475-0.2555 0.2853 (   522 PWs)   bands (ev):

    -4.0360   2.3472   8.0024   9.9164  11.8784  11.9249  13.2232  17.3388
    18.1939

          k = 0.2950 0.5110-0.0571 (   520 PWs)   bands (ev):

    -2.2300  -0.6489   8.2187   8.6342   9.7454  13.3450  14.6560  16.6039
    21.9442

          k = 0.1475 0.2555 0.0571 (   525 PWs)   bands (ev):

    -4.7882   4.1498   7.7366   9.2808  11.2218  14.5614  15.9192  16.5758
    17.7303

          k =-0.2950 0.0000 0.3995 (   519 PWs)   bands (ev):

    -3.3248   3.4960   6.1759   6.4418   8.0637  14.3237  16.7203  17.1116
    17.6522

          k = 0.1475 0.7665 0.0571 (   510 PWs)   bands (ev):

    -1.0183   0.2429   3.9126   5.8016  10.2888  13.9945  16.2375  19.8681
    20.0872

          k = 0.0000 0.5110 0.1712 (   521 PWs)   bands (ev):

    -2.8318   0.9061   5.8090   7.7148  11.1288  14.0121  16.5949  17.1006
    18.2610

          k = 0.5900 0.0000-0.2853 (   510 PWs)   bands (ev):

    -1.7757   2.0161   3.9183   5.8560   7.2753  14.1796  18.5886  19.3429
    21.6749

          k = 0.0000 0.0000 0.5136 (   522 PWs)   bands (ev):

    -3.1781   1.6312   8.9877   8.9877  11.2057  11.3993  11.3993  13.1514
    21.3720

          k = 0.4425 0.7665 0.1712 (   520 PWs)   bands (ev):

    -1.3686   0.4989   4.3931   7.4239   8.8241  13.6713  15.1519  18.4073
    20.3389

     the Fermi energy is    11.8653 ev

!    total energy              =     -25.44104713 Ry
     Harris-Foulkes estimate   =     -25.44104714 Ry
     estimated scf accuracy    <       0.00000002 Ry

     convergence has been achieved in   6 iterations

     Forces acting on atoms (Ry/au):

     atom    1 type  1   force =    -0.00000000    0.00000000   -0.02044830
     atom    2 type  1   force =     0.00000000    0.00000000    0.02044830

     Total force =     0.028918     Total SCF correction =     0.000106


     entering subroutine stress ...

          total   stress  (Ry/bohr**3)                   (kbar)     P=  325.27
   0.00204484   0.00000000  -0.00000000        300.81      0.00     -0.00
   0.00000000   0.00204484  -0.00000000          0.00    300.81     -0.00
  -0.00000000   0.00000000   0.00254382         -0.00      0.00    374.21


     Entering Dynamics;  it =     5   time =  0.02904 pico-seconds

  new lattice vectors (alat unit) :
   0.560390843  -0.000000000   0.734537725
  -0.280195270   0.485312659   0.734537761
  -0.280195270  -0.485312659   0.734537761
  new unit-cell volume =    206.4736 (a.u.)^3
  new positions in cryst coord
As       0.249599259   0.249599266   0.249599266
As      -0.249599259  -0.249599266  -0.249599266
  new positions in cart coord (alat unit)
As       0.000000072   0.000000000   0.550020244
As      -0.000000072  -0.000000000  -0.550020244

     Ekin =     0.12667519 Ry    T = 2942.1 K  Etot =   -24.60538676
     new unit-cell volume =    206.47358 a.u.^3 (    30.59623 Ang^3 )

CELL_PARAMETERS (alat=  7.01033623)
   0.560390843  -0.000000000   0.734537725
  -0.280195270   0.485312659   0.734537761
  -0.280195270  -0.485312659   0.734537761

ATOMIC_POSITIONS (crystal)
As       0.249599259   0.249599266   0.249599266
As      -0.249599259  -0.249599266  -0.249599266



     Writing output data file pwscf.save
     NEW-OLD atomic charge density approx. for the potential
     extrapolated charge    9.89747, renormalised to   10.00000

     total cpu time spent up to now is        2.9 secs

     per-process dynamical memory:     4.0 Mb

     Self-consistent Calculation

     iteration #  1     ecut=    25.00 Ry     beta=0.70
     Davidson diagonalization with overlap
     ethr =  1.00E-06,  avg # of iterations =  8.0

     total cpu time spent up to now is        3.1 secs

          k = 0.0000 0.0000 0.1702     band energies (ev):

    -5.2677   7.2290   9.1696   9.1696  11.5323  15.6076  15.6076  16.0660
    17.6032

          k =-0.1487-0.2576 0.2836     band energies (ev):

    -3.8857   2.5367   8.0229  10.9776  11.2055  12.1609  13.5417  17.9711
    18.0259

          k = 0.2974 0.5151-0.0567     band energies (ev):

    -2.0069  -0.5158   8.6211   8.7222   9.8618  13.2467  14.9977  16.4982
    22.0713

          k = 0.1487 0.2576 0.0567     band energies (ev):

    -4.6451   4.4210   8.0597   9.3348  11.4004  14.6283  16.6119  16.8959
    17.0607

          k =-0.2974 0.0000 0.3971     band energies (ev):

    -3.1623   3.5486   6.6380   6.7435   7.8490  14.8504  17.0339  17.5289
    17.6571

          k = 0.1487 0.7727 0.0567     band energies (ev):

    -0.7633   0.4139   4.0608   5.8038  10.4553  14.2374  16.5683  20.0559
    20.5332

          k = 0.0000 0.5151 0.1702     band energies (ev):

    -2.6524   1.1275   6.1195   7.6355  11.3956  13.8223  16.8778  17.5644
    18.3284

          k = 0.5948 0.0000-0.2836     band energies (ev):

    -1.5802   2.5384   3.6190   6.1452   7.3093  14.5364  18.7211  19.2819
    21.9673

          k = 0.0000 0.0000 0.5105     band energies (ev):

    -2.9891   1.4843   9.4555   9.4555  11.5171  11.5171  11.8828  13.2518
    21.7069

          k = 0.4461 0.7727 0.1702     band energies (ev):

    -0.9131   0.1767   4.6477   7.7635   9.0070  13.8661  15.7018  18.8044
    20.7538

     the Fermi energy is    11.5341 ev

     total energy              =     -25.44089307 Ry
     Harris-Foulkes estimate   =     -25.36551725 Ry
     estimated scf accuracy    <       0.00214390 Ry

     iteration #  2     ecut=    25.00 Ry     beta=0.70
     Davidson diagonalization with overlap
     ethr =  2.14E-05,  avg # of iterations =  1.0

     total cpu time spent up to now is        3.1 secs

          k = 0.0000 0.0000 0.1702     band energies (ev):

    -5.2836   7.2237   9.1647   9.1647  11.5131  15.5976  15.5976  16.0351
    17.5666

          k =-0.1487-0.2576 0.2836     band energies (ev):

    -3.9008   2.5268   8.0047  10.9833  11.1835  12.1330  13.5242  17.9590
    17.9817

          k = 0.2974 0.5151-0.0567     band energies (ev):

    -2.0207  -0.5286   8.6094   8.7015   9.8339  13.2389  14.9750  16.4879
    22.0436

          k = 0.1487 0.2576 0.0567     band energies (ev):

    -4.6607   4.4148   8.0503   9.3119  11.3797  14.6241  16.6043  16.8616
    17.0380

          k =-0.2974 0.0000 0.3971     band energies (ev):

    -3.1765   3.5426   6.6168   6.7307   7.8269  14.8035  17.0268  17.5095
    17.6448

          k = 0.1487 0.7727 0.0567     band energies (ev):

    -0.7732   0.4033   4.0348   5.7813  10.4439  14.2228  16.5234  20.0515
    20.5282

          k = 0.0000 0.5151 0.1702     band energies (ev):

    -2.6666   1.1178   6.0981   7.6133  11.3839  13.8075  16.8660  17.5240
    18.3163

          k = 0.5948 0.0000-0.2836     band energies (ev):

    -1.5911   2.5334   3.5910   6.1313   7.2852  14.4903  18.7214  19.2677
    21.9689

          k = 0.0000 0.0000 0.5105     band energies (ev):

    -3.0035   1.4727   9.4459   9.4459  11.5046  11.5046  11.8492  13.2145
    21.6677

          k = 0.4461 0.7727 0.1702     band energies (ev):

    -0.9244   0.1657   4.6230   7.7500   8.9801  13.8610  15.6784  18.7899
    20.7198

     the Fermi energy is    11.5192 ev

     total energy              =     -25.44092757 Ry
     Harris-Foulkes estimate   =     -25.44095354 Ry
     estimated scf accuracy    <       0.00014660 Ry

     iteration #  3     ecut=    25.00 Ry     beta=0.70
     Davidson diagonalization with overlap
     ethr =  1.47E-06,  avg # of iterations =  1.0

     total cpu time spent up to now is        3.2 secs

          k = 0.0000 0.0000 0.1702     band energies (ev):

    -5.2866   7.2177   9.1623   9.1623  11.5066  15.5955  15.5955  16.0287
    17.5680

          k =-0.1487-0.2576 0.2836     band energies (ev):

    -3.9039   2.5229   8.0017  10.9803  11.1823  12.1294  13.5193  17.9537
    17.9838

          k = 0.2974 0.5151-0.0567     band energies (ev):

    -2.0240  -0.5321   8.6079   8.6987   9.8303  13.2367  14.9714  16.4843
    22.0432

          k = 0.1487 0.2576 0.0567     band energies (ev):

    -4.6638   4.4102   8.0485   9.3077  11.3771  14.6188  16.6019  16.8620
    17.0341

          k =-0.2974 0.0000 0.3971     band energies (ev):

    -3.1798   3.5375   6.6149   6.7294   7.8239  14.8053  17.0242  17.5037
    17.6397

          k = 0.1487 0.7727 0.0567     band energies (ev):

    -0.7772   0.3995   4.0337   5.7794  10.4406  14.2190  16.5248  20.0461
    20.5220

          k = 0.0000 0.5151 0.1702     band energies (ev):

    -2.6698   1.1138   6.0963   7.6112  11.3799  13.8042  16.8630  17.5241
    18.3126

          k = 0.5948 0.0000-0.2836     band energies (ev):

    -1.5949   2.5284   3.5901   6.1301   7.2820  14.4921  18.7178  19.2608
    21.9618

          k = 0.0000 0.0000 0.5105     band energies (ev):

    -3.0068   1.4687   9.4442   9.4442  11.5029  11.5029  11.8445  13.2102
    21.6656

          k = 0.4461 0.7727 0.1702     band energies (ev):

    -0.9282   0.1617   4.6219   7.7487   8.9772  13.8584  15.6734  18.7859
    20.7186

     the Fermi energy is    11.5159 ev

     total energy              =     -25.44093217 Ry
     Harris-Foulkes estimate   =     -25.44093243 Ry
     estimated scf accuracy    <       0.00000110 Ry

     iteration #  4     ecut=    25.00 Ry     beta=0.70
     Davidson diagonalization with overlap
[...]

     Self-consistent Calculation

     iteration #  1     ecut=    25.00 Ry     beta=0.70
     Davidson diagonalization with overlap
     ethr =  1.00E-06,  avg # of iterations =  1.0

     Threshold (ethr) on eigenvalues was too large:
     Diagonalizing with lowered threshold

     Davidson diagonalization with overlap
     ethr =  1.45E-09,  avg # of iterations =  3.0

     total cpu time spent up to now is        8.7 secs

     End of self-consistent calculation

          k = 0.0000-0.0000 0.1674 (   531 PWs)   bands (ev):

    -4.8410   8.1965  10.7800  10.7800  13.5083  17.1805  17.1805  18.1507
    18.9108

          k =-0.1560-0.2703 0.2789 (   522 PWs)   bands (ev):

    -3.3725   3.7823   8.4172  12.5047  12.5094  13.8260  15.6163  19.2284
    19.9130

          k = 0.3121 0.5405-0.0558 (   520 PWs)   bands (ev):

    -1.1924   0.3081   9.2519   9.8739  11.3099  14.5172  16.6464  17.3707
    22.4186

          k = 0.1560 0.2703 0.0558 (   525 PWs)   bands (ev):

    -4.1199   5.8788   9.4473  10.2876  12.4403  16.3085  17.5021  17.9213
    18.7450

          k =-0.3121-0.0000 0.3905 (   519 PWs)   bands (ev):

    -2.6486   4.4522   7.7212   8.1290   8.9440  15.8589  19.0412  19.9142
    20.3551

          k = 0.1560 0.8108 0.0558 (   510 PWs)   bands (ev):

     0.0267   1.4959   4.8591   6.3015  11.6999  16.1200  18.0924  21.7895
    22.8023

          k = 0.0000 0.5405 0.1674 (   521 PWs)   bands (ev):

    -1.9332   2.2594   6.9753   8.4808  12.3690  14.7686  18.4818  19.3660
    20.3371

          k = 0.6241-0.0000-0.2789 (   510 PWs)   bands (ev):

    -0.7468   3.6249   4.1588   7.4226   8.2644  15.1768  20.4126  21.4148
    24.2104

          k = 0.0000-0.0000 0.5021 (   522 PWs)   bands (ev):

    -2.5994   1.9030  11.1103  11.1103  13.1548  13.1548  14.2306  15.5810
    23.2948

          k = 0.4681 0.8108 0.1674 (   520 PWs)   bands (ev):

    -0.3986   0.8253   5.5763   9.1314  10.6588  15.7577  18.3271  20.9484
    21.9552

     the Fermi energy is    13.4510 ev

!    total energy              =     -25.40113719 Ry
     Harris-Foulkes estimate   =     -25.39612327 Ry
     estimated scf accuracy    <       0.00000008 Ry

     convergence has been achieved in   1 iterations

     Forces acting on atoms (Ry/au):

     atom    1 type  1   force =     0.00000000   -0.00000000    0.00001247
     atom    2 type  1   force =    -0.00000000    0.00000000   -0.00001247

     Total force =     0.000018     Total SCF correction =     0.000000


     entering subroutine stress ...

          total   stress  (Ry/bohr**3)                   (kbar)     P=  502.35
   0.00341303  -0.00000000  -0.00000000        502.07     -0.00     -0.00
  -0.00000000   0.00341303   0.00000000         -0.00    502.07      0.00
  -0.00000000   0.00000000   0.00341874         -0.00      0.00    502.91


     Entering Dynamics;  it =    20   time =  0.13794 pico-seconds

  new lattice vectors (alat unit) :
   0.534095013  -0.000000000   0.747231730
  -0.267047400   0.462539794   0.747231794
  -0.267047400  -0.462539794   0.747231794
  new unit-cell volume =    190.7922 (a.u.)^3
  new positions in cryst coord
As       0.249997281   0.249997288   0.249997288
As      -0.249997281  -0.249997288  -0.249997288
  new positions in cart coord (alat unit)
As       0.000000049  -0.000000000   0.560417745
As      -0.000000049   0.000000000  -0.560417745

     Ekin =     0.00000092 Ry    T =  905.2 K  Etot =   -24.75299934
     new unit-cell volume =    190.79224 a.u.^3 (    28.27249 Ang^3 )

CELL_PARAMETERS (alat=  7.01033623)
   0.534095013  -0.000000000   0.747231730
  -0.267047400   0.462539794   0.747231794
  -0.267047400  -0.462539794   0.747231794

ATOMIC_POSITIONS (crystal)
As       0.249997281   0.249997288   0.249997288
As      -0.249997281  -0.249997288  -0.249997288



     Writing output data file pwscf.save
     NEW-OLD atomic charge density approx. for the potential
     extrapolated charge   10.00544, renormalised to   10.00000

     total cpu time spent up to now is        8.8 secs

     per-process dynamical memory:     4.0 Mb

     Self-consistent Calculation

     iteration #  1     ecut=    25.00 Ry     beta=0.70
     Davidson diagonalization with overlap
     ethr =  1.00E-06,  avg # of iterations =  1.0

     Threshold (ethr) on eigenvalues was too large:
     Diagonalizing with lowered threshold

     Davidson diagonalization with overlap
     ethr =  2.25E-09,  avg # of iterations =  3.0

     total cpu time spent up to now is        8.9 secs

          k = 0.0000-0.0000 0.1673     band energies (ev):

    -4.8467   8.1810  10.7728  10.7728  13.4948  17.1680  17.1680  18.1387
    18.8926

          k =-0.1560-0.2702 0.2788     band energies (ev):

    -3.3787   3.7744   8.4036  12.4945  12.5001  13.8151  15.6021  19.2101
    19.9019

          k = 0.3121 0.5405-0.0558     band energies (ev):

    -1.1984   0.3009   9.2383   9.8654  11.2993  14.5050  16.6310  17.3502
    22.3945

          k = 0.1560 0.2702 0.0558     band energies (ev):

    -4.1255   5.8700   9.4399  10.2747  12.4275  16.2909  17.4834  17.9063
    18.7300

          k =-0.3121-0.0000 0.3903     band energies (ev):

    -2.6555   4.4400   7.7123   8.1228   8.9342  15.8453  19.0298  19.9026
    20.3431

          k = 0.1560 0.8107 0.0558     band energies (ev):

     0.0188   1.4888   4.8513   6.2904  11.6875  16.1088  18.0809  21.7712
    22.7823

          k = 0.0000 0.5405 0.1673     band energies (ev):

    -1.9392   2.2521   6.9660   8.4698  12.3543  14.7526  18.4672  19.3527
    20.3232

          k = 0.6241 0.0000-0.2788     band energies (ev):

    -0.7537   3.6150   4.1498   7.4163   8.2535  15.1614  20.3972  21.3994
    24.1922

          k = 0.0000-0.0000 0.5019     band energies (ev):

    -2.6070   1.8915  11.1033  11.1033  13.1462  13.1462  14.2206  15.5707
    23.2759

          k = 0.4681 0.8107 0.1673     band energies (ev):

    -0.4074   0.8156   5.5689   9.1243  10.6498  15.7483  18.3165  20.9332
    21.9393

     the Fermi energy is    13.4375 ev

     total energy              =     -25.40149075 Ry
     Harris-Foulkes estimate   =     -25.40568578 Ry
     estimated scf accuracy    <       0.00000019 Ry

     iteration #  2     ecut=    25.00 Ry     beta=0.70
     Davidson diagonalization with overlap
     ethr =  1.85E-09,  avg # of iterations =  2.2

     total cpu time spent up to now is        9.0 secs

     End of self-consistent calculation

          k = 0.0000-0.0000 0.1673 (   531 PWs)   bands (ev):

    -4.8460   8.1810  10.7731  10.7731  13.4946  17.1686  17.1686  18.1394
    18.8950

          k =-0.1560-0.2702 0.2788 (   522 PWs)   bands (ev):

    -3.3780   3.7746   8.4045  12.4953  12.5003  13.8160  15.6026  19.2107
    19.9041

          k = 0.3121 0.5405-0.0558 (   520 PWs)   bands (ev):

    -1.1978   0.3014   9.2393   9.8661  11.3001  14.5055  16.6320  17.3509
    22.3962

          k = 0.1560 0.2702 0.0558 (   525 PWs)   bands (ev):

    -4.1248   5.8701   9.4405  10.2751  12.4284  16.2911  17.4857  17.9068
    18.7306

          k =-0.3121-0.0000 0.3903 (   519 PWs)   bands (ev):

    -2.6549   4.4400   7.7134   8.1236   8.9348  15.8481  19.0302  19.9031
    20.3429

          k = 0.1560 0.8107 0.0558 (   510 PWs)   bands (ev):

     0.0191   1.4891   4.8526   6.2915  11.6879  16.1091  18.0833  21.7714
    22.7842

          k = 0.0000 0.5405 0.1673 (   521 PWs)   bands (ev):

    -1.9386   2.2524   6.9671   8.4708  12.3547  14.7533  18.4688  19.3537
    20.3236

          k = 0.6241 0.0000-0.2788 (   510 PWs)   bands (ev):

    -0.7533   3.6151   4.1512   7.4171   8.2542  15.1643  20.3972  21.3994
    24.1915

          k = 0.0000-0.0000 0.5019 (   522 PWs)   bands (ev):

    -2.6064   1.8919  11.1039  11.1039  13.1469  13.1469  14.2218  15.5719
    23.2774

          k = 0.4681 0.8107 0.1673 (   520 PWs)   bands (ev):

    -0.4069   0.8160   5.5702   9.1251  10.6507  15.7485  18.3171  20.9345
    21.9401

     the Fermi energy is    13.4373 ev

!    total energy              =     -25.40149085 Ry
     Harris-Foulkes estimate   =     -25.40149085 Ry
     estimated scf accuracy    <          7.4E-09 Ry

     convergence has been achieved in   2 iterations

     Forces acting on atoms (Ry/au):

     atom    1 type  1   force =     0.00000000   -0.00000000    0.00001183
     atom    2 type  1   force =    -0.00000000    0.00000000   -0.00001183

     Total force =     0.000017     Total SCF correction =     0.000000


     entering subroutine stress ...

          total   stress  (Ry/bohr**3)                   (kbar)     P=  500.07
   0.00339922   0.00000000  -0.00000000        500.04      0.00     -0.00
   0.00000000   0.00339922  -0.00000000          0.00    500.04     -0.00
  -0.00000000  -0.00000000   0.00339970         -0.00     -0.00    500.11


     Entering Dynamics;  it =    21   time =  0.14520 pico-seconds

  new lattice vectors (alat unit) :
   0.534097885  -0.000000000   0.747242343
  -0.267048837   0.462542280   0.747242408
  -0.267048837  -0.462542280   0.747242408
  new unit-cell volume =    190.7970 (a.u.)^3
  new positions in cryst coord
As       0.249997402   0.249997410   0.249997410
As      -0.249997402  -0.249997410  -0.249997410
  new positions in cart coord (alat unit)
As       0.000000048  -0.000000000   0.560425978
As      -0.000000048   0.000000000  -0.560425978

     Ekin =     0.00000000 Ry    T =  860.0 K  Etot =   -24.75300111
     new unit-cell volume =    190.79700 a.u.^3 (    28.27320 Ang^3 )

CELL_PARAMETERS (alat=  7.01033623)
   0.534097885  -0.000000000   0.747242343
  -0.267048837   0.462542280   0.747242408
  -0.267048837  -0.462542280   0.747242408

ATOMIC_POSITIONS (crystal)
As       0.249997402   0.249997410   0.249997410
As      -0.249997402  -0.249997410  -0.249997410



     Writing output data file pwscf.save
     NEW-OLD atomic charge density approx. for the potential
     extrapolated charge   10.00025, renormalised to   10.00000

     total cpu time spent up to now is        9.1 secs

     per-process dynamical memory:     4.0 Mb

     Self-consistent Calculation

     iteration #  1     ecut=    25.00 Ry     beta=0.70
     Davidson diagonalization with overlap
     ethr =  1.00E-06,  avg # of iterations =  1.0

     Threshold (ethr) on eigenvalues was too large:
     Diagonalizing with lowered threshold

     Davidson diagonalization with overlap
     ethr =  8.13E-12,  avg # of iterations =  3.0

     total cpu time spent up to now is        9.2 secs

     End of self-consistent calculation

          k = 0.0000-0.0000 0.1673 (   531 PWs)   bands (ev):

    -4.8461   8.1806  10.7729  10.7729  13.4942  17.1682  17.1682  18.1390
    18.8944

          k =-0.1560-0.2702 0.2788 (   522 PWs)   bands (ev):

    -3.3781   3.7745   8.4042  12.4950  12.5001  13.8156  15.6021  19.2101
    19.9036

          k = 0.3121 0.5405-0.0558 (   520 PWs)   bands (ev):

    -1.1979   0.3013   9.2389   9.8659  11.2998  14.5051  16.6314  17.3503
    22.3955

          k = 0.1560 0.2702 0.0558 (   525 PWs)   bands (ev):

    -4.1249   5.8699   9.4403  10.2748  12.4280  16.2906  17.4851  17.9064
    18.7301

          k =-0.3121-0.0000 0.3903 (   519 PWs)   bands (ev):

    -2.6550   4.4398   7.7132   8.1234   8.9345  15.8476  19.0298  19.9027
    20.3425

          k = 0.1560 0.8107 0.0558 (   510 PWs)   bands (ev):

     0.0190   1.4890   4.8524   6.2912  11.6876  16.1088  18.0829  21.7708
    22.7836

          k = 0.0000 0.5405 0.1673 (   521 PWs)   bands (ev):

    -1.9387   2.2522   6.9669   8.4705  12.3543  14.7528  18.4683  19.3532
    20.3232

          k = 0.6241 0.0000-0.2788 (   510 PWs)   bands (ev):

    -0.7535   3.6149   4.1510   7.4169   8.2539  15.1637  20.3967  21.3989
    24.1910

          k = 0.0000-0.0000 0.5018 (   522 PWs)   bands (ev):

    -2.6065   1.8917  11.1037  11.1037  13.1467  13.1467  14.2214  15.5715
    23.2768

          k = 0.4681 0.8107 0.1673 (   520 PWs)   bands (ev):

    -0.4071   0.8158   5.5700   9.1249  10.6504  15.7482  18.3167  20.9340
    21.9395

     the Fermi energy is    13.4369 ev

!    total energy              =     -25.40150703 Ry
     Harris-Foulkes estimate   =     -25.40169946 Ry
     estimated scf accuracy    <          7.5E-10 Ry

     convergence has been achieved in   1 iterations

     Forces acting on atoms (Ry/au):

     atom    1 type  1   force =     0.00000000   -0.00000000    0.00001123
     atom    2 type  1   force =    -0.00000000    0.00000000   -0.00001123

     Total force =     0.000016     Total SCF correction =     0.000000


     entering subroutine stress ...

          total   stress  (Ry/bohr**3)                   (kbar)     P=  499.89
   0.00339810   0.00000000  -0.00000000        499.88      0.00     -0.00
   0.00000000   0.00339810  -0.00000000          0.00    499.88     -0.00
  -0.00000000  -0.00000000   0.00339844         -0.00     -0.00    499.93


     Entering Dynamics;  it =    22   time =  0.15246 pico-seconds

  new lattice vectors (alat unit) :
   0.534095760  -0.000000000   0.747238206
  -0.267047775   0.462540441   0.747238271
  -0.267047775  -0.462540441   0.747238271
  new unit-cell volume =    190.7944 (a.u.)^3
  new positions in cryst coord
As       0.249997518   0.249997526   0.249997526
As      -0.249997518  -0.249997526  -0.249997526
  new positions in cart coord (alat unit)
As       0.000000049  -0.000000000   0.560423135
As      -0.000000049   0.000000000  -0.560423135

     Ekin =     0.00000000 Ry    T =  819.0 K  Etot =   -24.75300111
     new unit-cell volume =    190.79442 a.u.^3 (    28.27282 Ang^3 )

CELL_PARAMETERS (alat=  7.01033623)
   0.534095760  -0.000000000   0.747238206
  -0.267047775   0.462540441   0.747238271
  -0.267047775  -0.462540441   0.747238271

ATOMIC_POSITIONS (crystal)
As       0.249997518   0.249997526   0.249997526
As      -0.249997518  -0.249997526  -0.249997526



     Writing output data file pwscf.save
     NEW-OLD atomic charge density approx. for the potential
     extrapolated charge    9.99987, renormalised to   10.00000

     total cpu time spent up to now is        9.4 secs

     per-process dynamical memory:     4.0 Mb

     Self-consistent Calculation

     iteration #  1     ecut=    25.00 Ry     beta=0.70
     Davidson diagonalization with overlap
     ethr =  1.00E-06,  avg # of iterations =  1.0

     Threshold (ethr) on eigenvalues was too large:
     Diagonalizing with lowered threshold

     Davidson diagonalization with overlap
     ethr =  3.05E-12,  avg # of iterations =  2.1

     total cpu time spent up to now is        9.5 secs

     End of self-consistent calculation

          k = 0.0000-0.0000 0.1673 (   531 PWs)   bands (ev):

    -4.8459   8.1809  10.7731  10.7731  13.4945  17.1685  17.1685  18.1393
    18.8948

          k =-0.1560-0.2702 0.2788 (   522 PWs)   bands (ev):

    -3.3780   3.7747   8.4044  12.4953  12.5003  13.8159  15.6025  19.2105
    19.9040

          k = 0.3121 0.5405-0.0558 (   520 PWs)   bands (ev):

    -1.1978   0.3014   9.2392   9.8661  11.3001  14.5054  16.6318  17.3506
    22.3959

          k = 0.1560 0.2702 0.0558 (   525 PWs)   bands (ev):

    -4.1247   5.8701   9.4405  10.2750  12.4283  16.2909  17.4855  17.9067
    18.7305

          k =-0.3121-0.0000 0.3903 (   519 PWs)   bands (ev):

    -2.6549   4.4400   7.7134   8.1236   8.9347  15.8480  19.0301  19.9030
    20.3428

          k = 0.1560 0.8107 0.0558 (   510 PWs)   bands (ev):

     0.0192   1.4891   4.8526   6.2915  11.6878  16.1091  18.0833  21.7712
    22.7840

          k = 0.0000 0.5405 0.1673 (   521 PWs)   bands (ev):

    -1.9386   2.2524   6.9671   8.4708  12.3545  14.7531  18.4686  19.3536
    20.3235

          k = 0.6241 0.0000-0.2788 (   510 PWs)   bands (ev):

    -0.7533   3.6151   4.1512   7.4171   8.2541  15.1641  20.3970  21.3992
    24.1913

          k = 0.0000-0.0000 0.5018 (   522 PWs)   bands (ev):

    -2.6064   1.8919  11.1039  11.1039  13.1469  13.1469  14.2217  15.5718
    23.2772

          k = 0.4681 0.8107 0.1673 (   520 PWs)   bands (ev):

    -0.4069   0.8159   5.5702   9.1251  10.6507  15.7484  18.3170  20.9344
    21.9399

     the Fermi energy is    13.4372 ev

!    total energy              =     -25.40149829 Ry
     Harris-Foulkes estimate   =     -25.40139426 Ry
     estimated scf accuracy    <          3.0E-10 Ry

     convergence has been achieved in   1 iterations

     Forces acting on atoms (Ry/au):

     atom    1 type  1   force =     0.00000000   -0.00000000    0.00001054
     atom    2 type  1   force =    -0.00000000    0.00000000   -0.00001054

     Total force =     0.000015     Total SCF correction =     0.000000


     entering subroutine stress ...

          total   stress  (Ry/bohr**3)                   (kbar)     P=  500.00
   0.00339880   0.00000000  -0.00000000        499.98      0.00     -0.00
   0.00000000   0.00339880  -0.00000000          0.00    499.98     -0.00
  -0.00000000  -0.00000000   0.00339916         -0.00     -0.00    500.03


     Wentzcovitch Damped Cell Dynamics Minimization:
     convergence achieved, Efinal=   -25.40149829

------------------------------------------------------------------------

     Final estimate of lattice vectors (input alat units)
   0.534095760  -0.000000000   0.747238206
  -0.267047775   0.462540441   0.747238271
  -0.267047775  -0.462540441   0.747238271
  final unit-cell volume =    190.7944 (a.u.)^3
  input alat =       7.0103 (a.u.)
Begin final coordinates
     new unit-cell volume =    190.79442 a.u.^3 (    28.27282 Ang^3 )

CELL_PARAMETERS (alat=  7.01033623)
   0.534095760  -0.000000000   0.747238206
  -0.267047775   0.462540441   0.747238271
  -0.267047775  -0.462540441   0.747238271

ATOMIC_POSITIONS (crystal)
As       0.249997518   0.249997526   0.249997526
As      -0.249997518  -0.249997526  -0.249997526
End final coordinates



     Writing output data file pwscf.save
 
     init_run     :      0.07s CPU      0.07s WALL (       1 calls)
     electrons    :      6.43s CPU      6.57s WALL (      23 calls)
     update_pot   :      0.81s CPU      0.81s WALL (      22 calls)
     forces       :      0.34s CPU      0.35s WALL (      23 calls)
     stress       :      0.62s CPU      0.62s WALL (      23 calls)

     Called by init_run:
     wfcinit      :      0.02s CPU      0.02s WALL (       1 calls)
     potinit      :      0.01s CPU      0.01s WALL (       1 calls)

     Called by electrons:
     c_bands      :      5.39s CPU      5.52s WALL (      98 calls)
     sum_band     :      0.90s CPU      0.90s WALL (      98 calls)
     v_of_rho     :      0.07s CPU      0.07s WALL (     109 calls)
     mix_rho      :      0.02s CPU      0.02s WALL (      98 calls)

     Called by c_bands:
     init_us_2    :      0.13s CPU      0.12s WALL (    2430 calls)
     cegterg      :      5.25s CPU      5.37s WALL (     980 calls)

     Called by sum_band:

     Called by *egterg:
     h_psi        :      3.97s CPU      4.07s WALL (    3334 calls)
     g_psi        :      0.04s CPU      0.06s WALL (    2344 calls)
     cdiaghg      :      0.67s CPU      0.67s WALL (    2984 calls)

     Called by h_psi:
     h_psi:pot    :      3.95s CPU      4.05s WALL (    3334 calls)
     h_psi:calbec :      0.14s CPU      0.12s WALL (    3334 calls)
     add_vuspsi   :      0.06s CPU      0.07s WALL (    3334 calls)

     General routines
     calbec       :      0.17s CPU      0.15s WALL (    4484 calls)
     fft          :      0.06s CPU      0.06s WALL (     574 calls)
     fftw         :      4.03s CPU      4.06s WALL (   56948 calls)
 
     Parallel routines
     fft_scatter  :      1.00s CPU      1.03s WALL (   57522 calls)
 
     PWSCF        :     9.32s CPU         9.57s WALL

 
   This run was terminated on:  14:38:27  23Aug2016            

=------------------------------------------------------------------------------=
   JOB DONE.
=------------------------------------------------------------------------------=
