
     Program PWSCF v.5.4.0 (svn rev. 12582M) starts on 18Jul2016 at 13: 4: 5 

     This program is part of the open-source Quantum ESPRESSO suite
     for quantum simulation of materials; please cite
         "P. Giannozzi et al., J. Phys.:Condens. Matter 21 395502 (2009);
          URL http://www.quantum-espresso.org", 
     in publications or presentations arising from this work. More details at
     http://www.quantum-espresso.org/quote
 
           HOST :    x86_64-pc-linux-gnu
           ARCH :    x86_64
             CC :    icc
            CPP :    cpp
            F90 :    gfortran
            F77 :    gfortran
         DFLAGS :    -D__GFORTRAN -D__STD_F95 -D__DFTI -D__MPI -D__PARA -D__HDF5
      BLAS LIBS :    -lmkl_gf_lp64  -lmkl_sequential -lmkl_core
    LAPACK LIBS :    
       FFT LIBS :    
      MASS LIBS :    

     Parallel version (MPI), running on     8 processors
     R & G space division:  proc/nbgrp/npool/nimage =       8
     Waiting for input...
     Reading input from standard input

     Current dimensions of program PWSCF are:
     Max number of different atomic species (ntypx) = 10
     Max number of k-points (npk) =  40000
     Max angular momentum in pseudopotentials (lmaxx) =  3
               file H.pz-vbc.UPF: wavefunction(s)  1S renormalized
               file C.pz-rrkjus.UPF: wavefunction(s)  2S renormalized

     Subspace diagonalization in iterative solution of the eigenvalue problem:
     a serial algorithm will be used

 
     Parallelization info
     --------------------
     sticks:   dense  smooth     PW     G-vecs:    dense   smooth      PW
     Min         223     223     54                 7130     7130     888
     Max         225     225     55                 7133     7133     893
     Sum        1789    1789    437                57051    57051    7123
 


     bravais-lattice index     =            1
     lattice parameter (alat)  =      15.0000  a.u.
     unit-cell volume          =    3375.0000 (a.u.)^3
     number of atoms/cell      =            5
     number of atomic types    =            2
     number of electrons       =         8.00
     number of Kohn-Sham states=            4
     kinetic-energy cutoff     =      25.0000  Ry
     charge density cutoff     =     100.0000  Ry
     convergence threshold     =      1.0E-08
     mixing beta               =       0.5000
     number of iterations used =            8  plain     mixing
     Exchange-correlation      =  SLA  PZ   NOGX NOGC ( 1  1  0  0 0 0)

     celldm(1)=  15.000000  celldm(2)=   0.000000  celldm(3)=   0.000000
     celldm(4)=   0.000000  celldm(5)=   0.000000  celldm(6)=   0.000000

     crystal axes: (cart. coord. in units of alat)
               a(1) = (   1.000000   0.000000   0.000000 )  
               a(2) = (   0.000000   1.000000   0.000000 )  
               a(3) = (   0.000000   0.000000   1.000000 )  

     reciprocal axes: (cart. coord. in units 2 pi/alat)
               b(1) = (  1.000000  0.000000  0.000000 )  
               b(2) = (  0.000000  1.000000  0.000000 )  
               b(3) = (  0.000000  0.000000  1.000000 )  


     PseudoPot. # 1 for H  read from file:
     /home/nvarini/espresso_hdf5/espresso/pseudo/H.pz-vbc.UPF
     MD5 check sum: 90becb985b714f09656c73597998d266
     Pseudo is Norm-conserving, Zval =  1.0
     Generated by new atomic code, or converted to UPF format
     Using radial grid of  131 points,  0 beta functions with: 

     PseudoPot. # 2 for C  read from file:
     /home/nvarini/espresso_hdf5/espresso/pseudo/C.pz-rrkjus.UPF
     MD5 check sum: a648be5dbf3fafdfb4e35f5396849845
     Pseudo is Ultrasoft, Zval =  4.0
     Generated by new atomic code, or converted to UPF format
     Using radial grid of 1425 points,  4 beta functions with: 
                l(1) =   0
                l(2) =   0
                l(3) =   1
                l(4) =   1
     Q(r) pseudized with 0 coefficients 


     atomic species   valence    mass     pseudopotential
        H              1.00     1.00000     H ( 1.00)
        C              4.00    12.00000     C ( 1.00)

     24 Sym. Ops. (no inversion) found



   Cartesian axes

     site n.     atom                  positions (alat units)
         1           H   tau(   1) = (   0.0807289   0.0807289   0.0807289  )
         2           H   tau(   2) = (  -0.0807289  -0.0807289   0.0807289  )
         3           H   tau(   3) = (   0.0807289  -0.0807289  -0.0807289  )
         4           H   tau(   4) = (  -0.0807289   0.0807289  -0.0807289  )
         5           C   tau(   5) = (   0.0000000   0.0000000   0.0000000  )

     number of k points=     1
                       cart. coord. in units 2pi/alat
        k(    1) = (   0.0000000   0.0000000   0.0000000), wk =   2.0000000

     Dense  grid:    57051 G-vectors     FFT dimensions: (  48,  48,  48)

     Largest allocated arrays     est. size (Mb)     dimensions
        Kohn-Sham Wavefunctions         0.05 Mb     (     893,    4)
        NL pseudopotentials             0.11 Mb     (     893,    8)
        Each V/rho on FFT grid          0.21 Mb     (   13824)
        Each G-vector array             0.05 Mb     (    7133)
        G-vector shells                 0.00 Mb     (     469)
     Largest temporary arrays     est. size (Mb)     dimensions
        Auxiliary wavefunctions         0.22 Mb     (     893,   16)
        Each subspace H/S matrix        0.00 Mb     (      16,   16)
        Each <psi_i|beta_j> matrix      0.00 Mb     (       8,    4)
        Arrays for rho mixing           1.69 Mb     (   13824,    8)

     Initial potential from superposition of free atoms
     Check: negative starting charge=   -0.004620

     starting charge    7.99985, renormalised to    8.00000

     negative rho (up, down):  4.620E-03 0.000E+00
     Starting wfc are    8 randomized atomic wfcs

     total cpu time spent up to now is        0.2 secs

     per-process dynamical memory:     6.4 Mb

     Self-consistent Calculation

     iteration #  1     ecut=    25.00 Ry     beta=0.50
     Davidson diagonalization with overlap
     ethr =  1.00E-02,  avg # of iterations =  2.0

     negative rho (up, down):  6.291E-03 0.000E+00

     total cpu time spent up to now is        0.3 secs

     total energy              =     -15.82753911 Ry
     Harris-Foulkes estimate   =     -16.28206367 Ry
     estimated scf accuracy    <       0.77080124 Ry

     iteration #  2     ecut=    25.00 Ry     beta=0.50
     Davidson diagonalization with overlap
     ethr =  9.64E-03,  avg # of iterations =  2.0

     negative rho (up, down):  6.336E-03 0.000E+00

     total cpu time spent up to now is        0.3 secs

     total energy              =     -15.99734373 Ry
     Harris-Foulkes estimate   =     -16.01795437 Ry
     estimated scf accuracy    <       0.04974900 Ry

     iteration #  3     ecut=    25.00 Ry     beta=0.50
     Davidson diagonalization with overlap
     ethr =  6.22E-04,  avg # of iterations =  2.0

     negative rho (up, down):  8.625E-03 0.000E+00

     total cpu time spent up to now is        0.4 secs

     total energy              =     -15.99958719 Ry
     Harris-Foulkes estimate   =     -16.00495025 Ry
     estimated scf accuracy    <       0.01261788 Ry

     iteration #  4     ecut=    25.00 Ry     beta=0.50
     Davidson diagonalization with overlap
     ethr =  1.58E-04,  avg # of iterations =  2.0

     negative rho (up, down):  7.755E-03 0.000E+00

     total cpu time spent up to now is        0.4 secs

     total energy              =     -16.00000490 Ry
     Harris-Foulkes estimate   =     -16.00250027 Ry
     estimated scf accuracy    <       0.00562299 Ry

     iteration #  5     ecut=    25.00 Ry     beta=0.50
     Davidson diagonalization with overlap
     ethr =  7.03E-05,  avg # of iterations =  1.0

     negative rho (up, down):  7.781E-03 0.000E+00

     total cpu time spent up to now is        0.4 secs

     total energy              =     -16.00029404 Ry
     Harris-Foulkes estimate   =     -16.00034007 Ry
     estimated scf accuracy    <       0.00026061 Ry

     iteration #  6     ecut=    25.00 Ry     beta=0.50
     Davidson diagonalization with overlap
     ethr =  3.26E-06,  avg # of iterations =  3.0

     negative rho (up, down):  7.867E-03 0.000E+00

     total cpu time spent up to now is        0.5 secs

     total energy              =     -16.00035795 Ry
     Harris-Foulkes estimate   =     -16.00037547 Ry
     estimated scf accuracy    <       0.00004138 Ry

     iteration #  7     ecut=    25.00 Ry     beta=0.50
     Davidson diagonalization with overlap
     ethr =  5.17E-07,  avg # of iterations =  2.0

     negative rho (up, down):  7.883E-03 0.000E+00

     total cpu time spent up to now is        0.5 secs

     total energy              =     -16.00036291 Ry
     Harris-Foulkes estimate   =     -16.00036511 Ry
     estimated scf accuracy    <       0.00000902 Ry

     iteration #  8     ecut=    25.00 Ry     beta=0.50
     Davidson diagonalization with overlap
     ethr =  1.13E-07,  avg # of iterations =  2.0

     negative rho (up, down):  7.882E-03 0.000E+00

     total cpu time spent up to now is        0.5 secs

     total energy              =     -16.00036269 Ry
     Harris-Foulkes estimate   =     -16.00036405 Ry
     estimated scf accuracy    <       0.00000537 Ry

     iteration #  9     ecut=    25.00 Ry     beta=0.50
     Davidson diagonalization with overlap
     ethr =  6.72E-08,  avg # of iterations =  1.0

     negative rho (up, down):  7.884E-03 0.000E+00

     total cpu time spent up to now is        0.6 secs

     total energy              =     -16.00036209 Ry
     Harris-Foulkes estimate   =     -16.00036275 Ry
     estimated scf accuracy    <       0.00000246 Ry

     iteration # 10     ecut=    25.00 Ry     beta=0.50
     Davidson diagonalization with overlap
     ethr =  3.08E-08,  avg # of iterations =  1.0

     negative rho (up, down):  7.886E-03 0.000E+00

     total cpu time spent up to now is        0.7 secs

     total energy              =     -16.00036217 Ry
     Harris-Foulkes estimate   =     -16.00036225 Ry
     estimated scf accuracy    <       0.00000054 Ry

     iteration # 11     ecut=    25.00 Ry     beta=0.50
     Davidson diagonalization with overlap
     ethr =  6.72E-09,  avg # of iterations =  1.0

     negative rho (up, down):  7.889E-03 0.000E+00

     total cpu time spent up to now is        0.7 secs

     total energy              =     -16.00036212 Ry
     Harris-Foulkes estimate   =     -16.00036219 Ry
     estimated scf accuracy    <       0.00000034 Ry

     iteration # 12     ecut=    25.00 Ry     beta=0.50
     Davidson diagonalization with overlap
     ethr =  4.26E-09,  avg # of iterations =  2.0

     negative rho (up, down):  7.892E-03 0.000E+00

     total cpu time spent up to now is        0.7 secs

     total energy              =     -16.00036217 Ry
     Harris-Foulkes estimate   =     -16.00036216 Ry
     estimated scf accuracy    <       0.00000007 Ry

     iteration # 13     ecut=    25.00 Ry     beta=0.50
     Davidson diagonalization with overlap
     ethr =  9.02E-10,  avg # of iterations =  1.0

     negative rho (up, down):  7.893E-03 0.000E+00

     total cpu time spent up to now is        0.8 secs

     total energy              =     -16.00036215 Ry
     Harris-Foulkes estimate   =     -16.00036217 Ry
     estimated scf accuracy    <       0.00000011 Ry

     iteration # 14     ecut=    25.00 Ry     beta=0.50
     Davidson diagonalization with overlap
     ethr =  9.02E-10,  avg # of iterations =  1.0

     negative rho (up, down):  7.907E-03 0.000E+00

     total cpu time spent up to now is        0.8 secs

     total energy              =     -16.00036213 Ry
     Harris-Foulkes estimate   =     -16.00036215 Ry
     estimated scf accuracy    <       0.00000006 Ry

     iteration # 15     ecut=    25.00 Ry     beta=0.50
     Davidson diagonalization with overlap
     ethr =  6.94E-10,  avg # of iterations =  2.0

     negative rho (up, down):  7.905E-03 0.000E+00

     total cpu time spent up to now is        0.9 secs

     End of self-consistent calculation

          k = 0.0000 0.0000 0.0000 (  7123 PWs)   bands (ev):

   -16.4340  -8.9762  -8.9762  -8.9762

     highest occupied level (ev):    -8.9762

!    total energy              =     -16.00036214 Ry
     Harris-Foulkes estimate   =     -16.00036214 Ry
     estimated scf accuracy    <          3.2E-09 Ry

     The total energy is the sum of the following terms:

     one-electron contribution =     -35.03990974 Ry
     hartree contribution      =      18.32659033 Ry
     xc contribution           =      -6.11310591 Ry
     ewald contribution        =       6.82606317 Ry

     convergence has been achieved in  15 iterations

     Forces acting on atoms (Ry/au):

     atom    1 type  1   force =     0.00000850    0.00000850    0.00000850
     atom    2 type  1   force =    -0.00000850   -0.00000850    0.00000850
     atom    3 type  1   force =     0.00000850   -0.00000850   -0.00000850
     atom    4 type  1   force =    -0.00000850    0.00000850   -0.00000850
     atom    5 type  2   force =     0.00000000    0.00000000    0.00000000

     Total force =     0.000029     Total SCF correction =     0.000016
     SCF correction compared to forces is large: reduce conv_thr to get better values

     Writing output data file ch4.save
 
     init_run     :      0.18s CPU      0.20s WALL (       1 calls)
     electrons    :      0.63s CPU      0.69s WALL (       1 calls)
     forces       :      0.05s CPU      0.06s WALL (       1 calls)

     Called by init_run:
     wfcinit      :      0.02s CPU      0.02s WALL (       1 calls)
     potinit      :      0.01s CPU      0.01s WALL (       1 calls)

     Called by electrons:
     c_bands      :      0.16s CPU      0.18s WALL (      15 calls)
     sum_band     :      0.21s CPU      0.22s WALL (      15 calls)
     v_of_rho     :      0.03s CPU      0.04s WALL (      16 calls)
     newd         :      0.10s CPU      0.11s WALL (      16 calls)
     mix_rho      :      0.06s CPU      0.06s WALL (      15 calls)

     Called by c_bands:
     init_us_2    :      0.01s CPU      0.01s WALL (      31 calls)
     cegterg      :      0.13s CPU      0.15s WALL (      15 calls)

     Called by sum_band:
     sum_band:bec :      0.00s CPU      0.00s WALL (      15 calls)
     addusdens    :      0.12s CPU      0.13s WALL (      15 calls)

     Called by *egterg:
     h_psi        :      0.13s CPU      0.14s WALL (      41 calls)
     s_psi        :      0.00s CPU      0.00s WALL (      41 calls)
     g_psi        :      0.00s CPU      0.00s WALL (      25 calls)
     cdiaghg      :      0.01s CPU      0.01s WALL (      40 calls)

     Called by h_psi:
     add_vuspsi   :      0.00s CPU      0.00s WALL (      41 calls)

     General routines
     calbec       :      0.02s CPU      0.03s WALL (      60 calls)
     fft          :      0.08s CPU      0.09s WALL (      97 calls)
     fftw         :      0.15s CPU      0.16s WALL (     386 calls)
 
     Parallel routines
     fft_scatter  :      0.17s CPU      0.18s WALL (     483 calls)
 
     PWSCF        :     0.97s CPU         1.08s WALL

 
   This run was terminated on:  13: 4: 6  18Jul2016            

=------------------------------------------------------------------------------=
   JOB DONE.
=------------------------------------------------------------------------------=
