
     Program PHONON v.5.4.0 (svn rev. 12590M) starts on 21Jul2016 at 15:57:34 

     This program is part of the open-source Quantum ESPRESSO suite
     for quantum simulation of materials; please cite
         "P. Giannozzi et al., J. Phys.:Condens. Matter 21 395502 (2009);
          URL http://www.quantum-espresso.org", 
     in publications or presentations arising from this work. More details at
     http://www.quantum-espresso.org/quote
 
           HOST :    x86_64-pc-linux-gnu
           ARCH :    x86_64
             CC :    icc
            CPP :    cpp
            F90 :    gfortran
            F77 :    gfortran
         DFLAGS :    -D__GFORTRAN -D__STD_F95 -D__DFTI -D__MPI -D__PARA -D__HDF5
      BLAS LIBS :    -lmkl_gf_lp64  -lmkl_sequential -lmkl_core
    LAPACK LIBS :    
       FFT LIBS :    
      MASS LIBS :    

     Parallel version (MPI), running on     2 processors
     R & G space division:  proc/nbgrp/npool/nimage =       2

     Reading data from directory:
     /home/nvarini/espresso_hdf5/espresso/tempdir/ch4.save

   Info: using nr1, nr2, nr3 values from input

   Info: using nr1, nr2, nr3 values from input

     IMPORTANT: XC functional enforced from input :
     Exchange-correlation      =  SLA  PZ   NOGX NOGC ( 1  1  0  0 0 0)
     Any further DFT definition will be discarded
     Please, verify this is what you really want

               file H.pz-vbc.UPF: wavefunction(s)  1S renormalized
               file C.pz-rrkjus.UPF: wavefunction(s)  2S renormalized
 
     Parallelization info
     --------------------
     sticks:   dense  smooth     PW     G-vecs:    dense   smooth      PW
     Min         893     893    218                28525    28525    3560
     Max         896     896    219                28526    28526    3563
     Sum        1789    1789    437                57051    57051    7123
 

     negative rho (up, down):  7.905E-03 0.000E+00

     Calculation of q =    0.0000000   0.0000000   0.0000000

                                                                                

     bravais-lattice index     =            1
     lattice parameter (alat)  =      15.0000  a.u.
     unit-cell volume          =    3375.0000 (a.u.)^3
     number of atoms/cell      =            5
     number of atomic types    =            2
     kinetic-energy cut-off    =      25.0000  Ry
     charge density cut-off    =     100.0000  Ry
     convergence threshold     =      4.0E-17
     beta                      =       0.7000
     number of iterations used =            4
     Exchange-correlation      =  SLA  PZ   NOGX NOGC ( 1  1  0  0 0 0)


     celldm(1)=   15.00000  celldm(2)=    0.00000  celldm(3)=    0.00000
     celldm(4)=    0.00000  celldm(5)=    0.00000  celldm(6)=    0.00000

     crystal axes: (cart. coord. in units of alat)
               a(1) = (  1.0000  0.0000  0.0000 )  
               a(2) = (  0.0000  1.0000  0.0000 )  
               a(3) = (  0.0000  0.0000  1.0000 )  

     reciprocal axes: (cart. coord. in units 2 pi/alat)
               b(1) = (  1.0000  0.0000  0.0000 )  
               b(2) = (  0.0000  1.0000  0.0000 )  
               b(3) = (  0.0000  0.0000  1.0000 )  


     Atoms inside the unit cell: 

     Cartesian axes

     site n.  atom      mass           positions (alat units)
        1     H    1.0000   tau(    1) = (    0.08073    0.08073    0.08073  )
        2     H    1.0000   tau(    2) = (   -0.08073   -0.08073    0.08073  )
        3     H    1.0000   tau(    3) = (    0.08073   -0.08073   -0.08073  )
        4     H    1.0000   tau(    4) = (   -0.08073    0.08073   -0.08073  )
        5     C   12.0000   tau(    5) = (    0.00000    0.00000    0.00000  )

     Computing dynamical matrix for 
                    q = (   0.0000000   0.0000000   0.0000000 )
 
     25 Sym.Ops. (with q -> -q+G )


     G cutoff =  569.9317  (  28526 G-vectors)     FFT grid: ( 48, 48, 48)
     number of k points=     1
                       cart. coord. in units 2pi/alat
        k(    1) = (   0.0000000   0.0000000   0.0000000), wk =   2.0000000

     PseudoPot. # 1 for H  read from file:
     /home/nvarini/espresso_hdf5/espresso/pseudo/H.pz-vbc.UPF
     MD5 check sum: 90becb985b714f09656c73597998d266
     Pseudo is Norm-conserving, Zval =  1.0
     Generated by new atomic code, or converted to UPF format
     Using radial grid of  131 points,  0 beta functions with: 

     PseudoPot. # 2 for C  read from file:
     /home/nvarini/espresso_hdf5/espresso/pseudo/C.pz-rrkjus.UPF
     MD5 check sum: a648be5dbf3fafdfb4e35f5396849845
     Pseudo is Ultrasoft, Zval =  4.0
     Generated by new atomic code, or converted to UPF format
     Using radial grid of 1425 points,  4 beta functions with: 
                l(1) =   0
                l(2) =   0
                l(3) =   1
                l(4) =   1
     Q(r) pseudized with 0 coefficients 


     Mode symmetry, T_d (-43m)  point group:

     k=gamma and q=gamma tricks are used


     Electric field:
     Dielectric constant and polarizability
     Born effective charges in two ways 


     Atomic displacements:
     There are  15 irreducible representations

     Representation     1      1 modes -A  To be done

     Representation     2      1 modes -A  To be done

     Representation     3      1 modes -A  To be done

     Representation     4      1 modes - Calculated using symmetry

     Representation     5      1 modes - Calculated using symmetry

     Representation     6      1 modes - Calculated using symmetry

     Representation     7      1 modes - Calculated using symmetry

     Representation     8      1 modes - Calculated using symmetry

     Representation     9      1 modes - Calculated using symmetry

     Representation    10      1 modes - Calculated using symmetry

     Representation    11      1 modes - Calculated using symmetry

     Representation    12      1 modes - Calculated using symmetry

     Representation    13      1 modes - Calculated using asr

     Representation    14      1 modes - Calculated using asr

     Representation    15      1 modes - Calculated using asr



     Alpha used in Ewald sum =   1.0000
     PHONON       :     1.75s CPU         1.78s WALL


     Electric Fields Calculation

      iter #   1 total cpu time :     2.5 secs   av.it.:   6.0
      thresh= 1.000E-02 alpha_mix =  0.700 |ddv_scf|^2 =  5.144E-08

      iter #   2 total cpu time :     2.9 secs   av.it.:  11.0
      thresh= 2.268E-05 alpha_mix =  0.700 |ddv_scf|^2 =  4.034E-09

      iter #   3 total cpu time :     3.3 secs   av.it.:  10.7
      thresh= 6.352E-06 alpha_mix =  0.700 |ddv_scf|^2 =  2.768E-10

      iter #   4 total cpu time :     3.7 secs   av.it.:  10.7
      thresh= 1.664E-06 alpha_mix =  0.700 |ddv_scf|^2 =  9.004E-13

      iter #   5 total cpu time :     4.1 secs   av.it.:  11.7
      thresh= 9.489E-08 alpha_mix =  0.700 |ddv_scf|^2 =  2.667E-14

      iter #   6 total cpu time :     4.5 secs   av.it.:  10.3
      thresh= 1.633E-08 alpha_mix =  0.700 |ddv_scf|^2 =  3.966E-15

      iter #   7 total cpu time :     4.9 secs   av.it.:  10.3
      thresh= 6.297E-09 alpha_mix =  0.700 |ddv_scf|^2 =  7.342E-17

      iter #   8 total cpu time :     5.3 secs   av.it.:  10.3
      thresh= 8.569E-10 alpha_mix =  0.700 |ddv_scf|^2 =  2.780E-19

     End of electric fields calculation

          Dielectric constant in cartesian axis 

          (       1.071771253       0.000000000       0.000000000 )
          (       0.000000000       1.071771253       0.000000000 )
          (       0.000000000       0.000000000       1.071771253 )

     Polarizability (a.u.)^3                    Polarizability (A^3)
     18.83      0.00      0.00             2.7897        0.0000        0.0000
      0.00     18.83      0.00             0.0000        2.7897        0.0000
      0.00      0.00     18.83             0.0000        0.0000        2.7897

          Effective charges (d Force / dE) in cartesian axis

           atom      1   H  
      Ex  (        0.03178       -0.05947       -0.05947 )
      Ey  (       -0.05947        0.03178       -0.05947 )
      Ez  (       -0.05947       -0.05947        0.03178 )
           atom      2   H  
      Ex  (        0.03178       -0.05947        0.05947 )
      Ey  (       -0.05947        0.03178        0.05947 )
      Ez  (        0.05947        0.05947        0.03178 )
           atom      3   H  
      Ex  (        0.03178        0.05947        0.05947 )
      Ey  (        0.05947        0.03178       -0.05947 )
      Ez  (        0.05947       -0.05947        0.03178 )
           atom      4   H  
      Ex  (        0.03178        0.05947       -0.05947 )
      Ey  (        0.05947        0.03178        0.05947 )
      Ez  (       -0.05947        0.05947        0.03178 )
           atom      5   C  
      Ex  (       -0.02681        0.00000        0.00000 )
      Ey  (        0.00000       -0.02681        0.00000 )
      Ez  (        0.00000        0.00000       -0.02681 )


     Representation #  1 mode #   1

     Self-consistent Calculation

      iter #   1 total cpu time :     6.0 secs   av.it.:   5.0
      thresh= 1.000E-02 alpha_mix =  0.700 |ddv_scf|^2 =  1.426E-08

      iter #   2 total cpu time :     6.2 secs   av.it.:  11.0
      thresh= 1.194E-05 alpha_mix =  0.700 |ddv_scf|^2 =  6.801E-09

      iter #   3 total cpu time :     6.3 secs   av.it.:   9.0
      thresh= 8.247E-06 alpha_mix =  0.700 |ddv_scf|^2 =  6.873E-11

      iter #   4 total cpu time :     6.4 secs   av.it.:  11.0
      thresh= 8.291E-07 alpha_mix =  0.700 |ddv_scf|^2 =  1.059E-11

      iter #   5 total cpu time :     6.6 secs   av.it.:  10.0
      thresh= 3.254E-07 alpha_mix =  0.700 |ddv_scf|^2 =  6.380E-13

      iter #   6 total cpu time :     6.7 secs   av.it.:  10.0
      thresh= 7.987E-08 alpha_mix =  0.700 |ddv_scf|^2 =  6.913E-15

      iter #   7 total cpu time :     6.9 secs   av.it.:  10.0
      thresh= 8.314E-09 alpha_mix =  0.700 |ddv_scf|^2 =  7.461E-17

      iter #   8 total cpu time :     7.0 secs   av.it.:  10.0
      thresh= 8.638E-10 alpha_mix =  0.700 |ddv_scf|^2 =  1.776E-18

     End of self-consistent calculation

     Convergence has been achieved 


     Representation #  2 mode #   2

     Self-consistent Calculation

      iter #   1 total cpu time :     7.2 secs   av.it.:   5.0
      thresh= 1.000E-02 alpha_mix =  0.700 |ddv_scf|^2 =  1.425E-08

      iter #   2 total cpu time :     7.3 secs   av.it.:  11.0
      thresh= 1.194E-05 alpha_mix =  0.700 |ddv_scf|^2 =  6.795E-09

      iter #   3 total cpu time :     7.4 secs   av.it.:   9.0
      thresh= 8.243E-06 alpha_mix =  0.700 |ddv_scf|^2 =  6.836E-11

      iter #   4 total cpu time :     7.6 secs   av.it.:  11.0
      thresh= 8.268E-07 alpha_mix =  0.700 |ddv_scf|^2 =  1.035E-11

      iter #   5 total cpu time :     7.7 secs   av.it.:  10.0
      thresh= 3.217E-07 alpha_mix =  0.700 |ddv_scf|^2 =  6.293E-13

      iter #   6 total cpu time :     7.9 secs   av.it.:   9.0
      thresh= 7.933E-08 alpha_mix =  0.700 |ddv_scf|^2 =  6.383E-15

      iter #   7 total cpu time :     8.0 secs   av.it.:   9.0
      thresh= 7.989E-09 alpha_mix =  0.700 |ddv_scf|^2 =  7.040E-17

      iter #   8 total cpu time :     8.1 secs   av.it.:  10.0
      thresh= 8.391E-10 alpha_mix =  0.700 |ddv_scf|^2 =  1.248E-18

     End of self-consistent calculation

     Convergence has been achieved 


     Representation #  3 mode #   3

     Self-consistent Calculation

      iter #   1 total cpu time :     8.3 secs   av.it.:   5.0
      thresh= 1.000E-02 alpha_mix =  0.700 |ddv_scf|^2 =  1.421E-08

      iter #   2 total cpu time :     8.4 secs   av.it.:  11.0
      thresh= 1.192E-05 alpha_mix =  0.700 |ddv_scf|^2 =  6.760E-09

      iter #   3 total cpu time :     8.6 secs   av.it.:   9.0
      thresh= 8.222E-06 alpha_mix =  0.700 |ddv_scf|^2 =  6.740E-11

      iter #   4 total cpu time :     8.7 secs   av.it.:  11.0
      thresh= 8.210E-07 alpha_mix =  0.700 |ddv_scf|^2 =  1.021E-11

      iter #   5 total cpu time :     8.9 secs   av.it.:  10.0
      thresh= 3.196E-07 alpha_mix =  0.700 |ddv_scf|^2 =  6.393E-13

      iter #   6 total cpu time :     9.0 secs   av.it.:  10.0
      thresh= 7.996E-08 alpha_mix =  0.700 |ddv_scf|^2 =  6.293E-15

      iter #   7 total cpu time :     9.2 secs   av.it.:  10.0
      thresh= 7.933E-09 alpha_mix =  0.700 |ddv_scf|^2 =  6.742E-17

      iter #   8 total cpu time :     9.3 secs   av.it.:  10.0
      thresh= 8.211E-10 alpha_mix =  0.700 |ddv_scf|^2 =  1.243E-18

     End of self-consistent calculation

     Convergence has been achieved 
 
     Number of q in the star =    1
     List of q in the star:
          1   0.000000000   0.000000000   0.000000000

          Dielectric constant in cartesian axis 

          (       1.071771253       0.000000000       0.000000000 )
          (       0.000000000       1.071771253       0.000000000 )
          (       0.000000000       0.000000000       1.071771253 )

     Polarizability (a.u.)^3                    Polarizability (A^3)
     18.83      0.00      0.00             2.7897        0.0000        0.0000
      0.00     18.83      0.00             0.0000        2.7897        0.0000
      0.00      0.00     18.83             0.0000        0.0000        2.7897

          Effective charges (d Force / dE) in cartesian axis

           atom      1   H  
      Ex  (        0.03178       -0.05947       -0.05947 )
      Ey  (       -0.05947        0.03178       -0.05947 )
      Ez  (       -0.05947       -0.05947        0.03178 )
           atom      2   H  
      Ex  (        0.03178       -0.05947        0.05947 )
      Ey  (       -0.05947        0.03178        0.05947 )
      Ez  (        0.05947        0.05947        0.03178 )
           atom      3   H  
      Ex  (        0.03178        0.05947        0.05947 )
      Ey  (        0.05947        0.03178       -0.05947 )
      Ez  (        0.05947       -0.05947        0.03178 )
           atom      4   H  
      Ex  (        0.03178        0.05947       -0.05947 )
      Ey  (        0.05947        0.03178        0.05947 )
      Ez  (       -0.05947        0.05947        0.03178 )
           atom      5   C  
      Ex  (       -0.02681        0.00000        0.00000 )
      Ey  (        0.00000       -0.02681        0.00000 )
      Ez  (        0.00000        0.00000       -0.02681 )

          Effective charges (d P / du) in cartesian axis 

           atom      1   H  
      Px  (        0.03178       -0.05947       -0.05947 )
      Py  (       -0.05947        0.03178       -0.05947 )
      Pz  (       -0.05947       -0.05947        0.03178 )
           atom      2   H  
      Px  (        0.03178       -0.05947        0.05947 )
      Py  (       -0.05947        0.03178        0.05947 )
      Pz  (        0.05947        0.05947        0.03178 )
           atom      3   H  
      Px  (        0.03178        0.05947        0.05947 )
      Py  (        0.05947        0.03178       -0.05947 )
      Pz  (        0.05947       -0.05947        0.03178 )
           atom      4   H  
      Px  (        0.03178        0.05947       -0.05947 )
      Py  (        0.05947        0.03178        0.05947 )
      Pz  (       -0.05947        0.05947        0.03178 )
           atom      5   C  
      Px  (       -0.12711        0.00000        0.00000 )
      Py  (        0.00000       -0.12711        0.00000 )
      Pz  (        0.00000        0.00000       -0.12711 )

     Diagonalizing the dynamical matrix

     q = (    0.000000000   0.000000000   0.000000000 ) 

 **************************************************************************
     freq (    1) =      -0.007002 [THz] =      -0.233554 [cm-1]
     freq (    2) =      -0.006952 [THz] =      -0.231895 [cm-1]
     freq (    3) =      -0.006931 [THz] =      -0.231209 [cm-1]
     freq (    4) =       1.112559 [THz] =      37.110967 [cm-1]
     freq (    5) =       1.112744 [THz] =      37.117141 [cm-1]
     freq (    6) =       1.112773 [THz] =      37.118106 [cm-1]
     freq (    7) =      36.536127 [THz] =    1218.714031 [cm-1]
     freq (    8) =      36.536137 [THz] =    1218.714341 [cm-1]
     freq (    9) =      36.536150 [THz] =    1218.714777 [cm-1]
     freq (   10) =      43.474415 [THz] =    1450.150387 [cm-1]
     freq (   11) =      43.474422 [THz] =    1450.150610 [cm-1]
     freq (   12) =      87.786261 [THz] =    2928.234463 [cm-1]
     freq (   13) =      91.590818 [THz] =    3055.140830 [cm-1]
     freq (   14) =      91.590821 [THz] =    3055.140934 [cm-1]
     freq (   15) =      91.590823 [THz] =    3055.140991 [cm-1]
 **************************************************************************

     Mode symmetry, T_d (-43m)  point group:

     freq (  1 -  1) =         -0.2  [cm-1]   -->   ?
     freq (  2 -  2) =         -0.2  [cm-1]   -->   ?
     freq (  3 -  3) =         -0.2  [cm-1]   -->   ?
     freq (  4 -  4) =         37.1  [cm-1]   -->   ?
     freq (  5 -  5) =         37.1  [cm-1]   -->   ?
     freq (  6 -  6) =         37.1  [cm-1]   -->   ?
     freq (  7 -  9) =       1218.7  [cm-1]   --> T_2  G_15 P_4   I+R
     freq ( 10 - 11) =       1450.2  [cm-1]   --> E    G_12 P_3   R  
     freq ( 12 - 12) =       2928.2  [cm-1]   --> A_1  G_1  P_1   R  
     freq ( 13 - 15) =       3055.1  [cm-1]   --> T_2  G_15 P_4   I+R
 
     PHONON       :     9.01s CPU         9.38s WALL

     INITIALIZATION: 
     phq_setup    :      0.02s CPU      0.02s WALL (       1 calls)
     phq_init     :      1.17s CPU      1.19s WALL (       1 calls)
 
     phq_init     :      1.17s CPU      1.19s WALL (       1 calls)
     init_vloc    :      0.01s CPU      0.01s WALL (       1 calls)
     init_us_1    :      0.16s CPU      0.16s WALL (       1 calls)
     newd         :      0.01s CPU      0.02s WALL (       1 calls)
     dvanqq       :      0.31s CPU      0.31s WALL (       1 calls)
     drho         :      0.42s CPU      0.43s WALL (       1 calls)
     cmpt_qdipol  :      0.00s CPU      0.00s WALL (       1 calls)
 
     DIELECTRIC CONSTANT AND EFFECTIVE CHARGES:
     solve_e      :      3.38s CPU      3.52s WALL (       1 calls)
     dielec       :      0.00s CPU      0.00s WALL (       1 calls)
     zstar_eu     :      0.58s CPU      0.59s WALL (       1 calls)
 
     DYNAMICAL MATRIX:
     dynmat0      :      0.08s CPU      0.08s WALL (       1 calls)
     phqscf       :      3.29s CPU      3.45s WALL (       1 calls)
     dynmatrix    :      0.01s CPU      0.02s WALL (       1 calls)
 
     phqscf       :      3.29s CPU      3.45s WALL (       1 calls)
     solve_linter :      3.17s CPU      3.32s WALL (       3 calls)
     drhodv       :      0.08s CPU      0.08s WALL (       3 calls)
     add_zstar_ue :      0.00s CPU      0.00s WALL (       3 calls)
     add_zstar_us :      0.03s CPU      0.03s WALL (       3 calls)
 
     dynmat0      :      0.08s CPU      0.08s WALL (       1 calls)
     dynmat_us    :      0.03s CPU      0.03s WALL (       1 calls)
     d2ionq       :      0.05s CPU      0.05s WALL (       1 calls)
 
     dynmat_us    :      0.03s CPU      0.03s WALL (       1 calls)
     addusdynmat  :      0.00s CPU      0.00s WALL (       1 calls)
 
     phqscf       :      3.29s CPU      3.45s WALL (       1 calls)
     solve_linter :      3.17s CPU      3.32s WALL (       3 calls)
 
     solve_linter :      3.17s CPU      3.32s WALL (       3 calls)
     dvqpsi_us    :      0.14s CPU      0.14s WALL (      18 calls)
     ortho        :      0.03s CPU      0.03s WALL (      51 calls)
     cgsolve      :      3.87s CPU      3.90s WALL (      51 calls)
     incdrhoscf   :      0.35s CPU      0.36s WALL (      51 calls)
     addusddens   :      0.76s CPU      0.77s WALL (      39 calls)
     vpsifft      :      0.13s CPU      0.13s WALL (      21 calls)
     dv_of_drho   :      0.19s CPU      0.20s WALL (      51 calls)
     mix_pot      :      0.19s CPU      0.34s WALL (      32 calls)
     newdq        :      0.85s CPU      0.87s WALL (      32 calls)
     adddvscf     :      0.01s CPU      0.01s WALL (      42 calls)
     drhodvus     :      0.01s CPU      0.01s WALL (       3 calls)
 
     dvqpsi_us    :      0.14s CPU      0.14s WALL (      18 calls)
     dvqpsi_us_on :      0.00s CPU      0.00s WALL (      18 calls)
 
     cgsolve      :      3.87s CPU      3.90s WALL (      51 calls)
     ch_psi       :      3.73s CPU      3.77s WALL (     603 calls)
 
     ch_psi       :      3.73s CPU      3.77s WALL (     603 calls)
     last         :      0.31s CPU      0.32s WALL (     603 calls)
 
     add_vuspsi   :      0.07s CPU      0.08s WALL (     603 calls)
 
     incdrhoscf   :      0.35s CPU      0.36s WALL (      51 calls)
     addusdbec    :      0.01s CPU      0.01s WALL (      66 calls)
 
     drhodvus     :      0.01s CPU      0.01s WALL (       3 calls)
 
      General routines
     calbec       :      0.26s CPU      0.25s WALL (    1783 calls)
     fft          :      0.31s CPU      0.32s WALL (     273 calls)
     ffts         :      0.09s CPU      0.10s WALL (      78 calls)
     fftw         :      3.35s CPU      3.35s WALL (    5374 calls)
     davcio       :      0.10s CPU      0.21s WALL (     678 calls)
     write_rec    :      0.05s CPU      0.12s WALL (      35 calls)
 
 
     PHONON       :     9.01s CPU         9.38s WALL

 
   This run was terminated on:  15:57:43  21Jul2016            

=------------------------------------------------------------------------------=
   JOB DONE.
=------------------------------------------------------------------------------=
