
     Program PWSCF v.5.4.0 (svn rev. 12620M) starts on 28Jul2016 at 11:11:41 

     This program is part of the open-source Quantum ESPRESSO suite
     for quantum simulation of materials; please cite
         "P. Giannozzi et al., J. Phys.:Condens. Matter 21 395502 (2009);
          URL http://www.quantum-espresso.org", 
     in publications or presentations arising from this work. More details at
     http://www.quantum-espresso.org/quote
 
           HOST :    x86_64-pc-linux-gnu
           ARCH :    x86_64
             CC :    icc
            CPP :    cpp
            F90 :    ifort
            F77 :    ifort
         DFLAGS :    -D__INTEL -D__FFTW -D__MPI -D__PARA -D__HDF5
      BLAS LIBS :    -lmkl_intel_lp64  -lmkl_sequential -lmkl_core
    LAPACK LIBS :    
       FFT LIBS :    
      MASS LIBS :    

     Parallel version (MPI), running on     2 processors
     R & G space division:  proc/nbgrp/npool/nimage =       2
     Waiting for input...
     Reading input from standard input

     Current dimensions of program PWSCF are:
     Max number of different atomic species (ntypx) = 10
     Max number of k-points (npk) =  40000
     Max angular momentum in pseudopotentials (lmaxx) =  3
               file H.pz-vbc.UPF: wavefunction(s)  1S renormalized
               file C.pz-rrkjus.UPF: wavefunction(s)  2S renormalized

     Subspace diagonalization in iterative solution of the eigenvalue problem:
     a serial algorithm will be used

 
     Parallelization info
     --------------------
     sticks:   dense  smooth     PW     G-vecs:    dense   smooth      PW
     Min         893     893    218                28525    28525    3560
     Max         896     896    219                28526    28526    3563
     Sum        1789    1789    437                57051    57051    7123
 


     bravais-lattice index     =            1
     lattice parameter (alat)  =      15.0000  a.u.
     unit-cell volume          =    3375.0000 (a.u.)^3
     number of atoms/cell      =            5
     number of atomic types    =            2
     number of electrons       =         8.00
     number of Kohn-Sham states=            4
     kinetic-energy cutoff     =      25.0000  Ry
     charge density cutoff     =     100.0000  Ry
     convergence threshold     =      1.0E-08
     mixing beta               =       0.5000
     number of iterations used =            8  plain     mixing
     Exchange-correlation      =  SLA  PZ   NOGX NOGC ( 1  1  0  0 0 0)

     celldm(1)=  15.000000  celldm(2)=   0.000000  celldm(3)=   0.000000
     celldm(4)=   0.000000  celldm(5)=   0.000000  celldm(6)=   0.000000

     crystal axes: (cart. coord. in units of alat)
               a(1) = (   1.000000   0.000000   0.000000 )  
               a(2) = (   0.000000   1.000000   0.000000 )  
               a(3) = (   0.000000   0.000000   1.000000 )  

     reciprocal axes: (cart. coord. in units 2 pi/alat)
               b(1) = (  1.000000  0.000000  0.000000 )  
               b(2) = (  0.000000  1.000000  0.000000 )  
               b(3) = (  0.000000  0.000000  1.000000 )  


     PseudoPot. # 1 for H  read from file:
     /home/nvarini/espresso_hdf5/espresso/pseudo/H.pz-vbc.UPF
     MD5 check sum: 90becb985b714f09656c73597998d266
     Pseudo is Norm-conserving, Zval =  1.0
     Generated by new atomic code, or converted to UPF format
     Using radial grid of  131 points,  0 beta functions with: 

     PseudoPot. # 2 for C  read from file:
     /home/nvarini/espresso_hdf5/espresso/pseudo/C.pz-rrkjus.UPF
     MD5 check sum: a648be5dbf3fafdfb4e35f5396849845
     Pseudo is Ultrasoft, Zval =  4.0
     Generated by new atomic code, or converted to UPF format
     Using radial grid of 1425 points,  4 beta functions with: 
                l(1) =   0
                l(2) =   0
                l(3) =   1
                l(4) =   1
     Q(r) pseudized with 0 coefficients 


     atomic species   valence    mass     pseudopotential
        H              1.00     1.00000     H ( 1.00)
        C              4.00    12.00000     C ( 1.00)

     24 Sym. Ops. (no inversion) found



   Cartesian axes

     site n.     atom                  positions (alat units)
         1           H   tau(   1) = (   0.0807289   0.0807289   0.0807289  )
         2           H   tau(   2) = (  -0.0807289  -0.0807289   0.0807289  )
         3           H   tau(   3) = (   0.0807289  -0.0807289  -0.0807289  )
         4           H   tau(   4) = (  -0.0807289   0.0807289  -0.0807289  )
         5           C   tau(   5) = (   0.0000000   0.0000000   0.0000000  )

     number of k points=     1
                       cart. coord. in units 2pi/alat
        k(    1) = (   0.0000000   0.0000000   0.0000000), wk =   2.0000000

     Dense  grid:    57051 G-vectors     FFT dimensions: (  48,  48,  48)

     Largest allocated arrays     est. size (Mb)     dimensions
        Kohn-Sham Wavefunctions         0.22 Mb     (    3560,    4)
        NL pseudopotentials             0.43 Mb     (    3560,    8)
        Each V/rho on FFT grid          0.84 Mb     (   55296)
        Each G-vector array             0.22 Mb     (   28526)
        G-vector shells                 0.00 Mb     (     477)
     Largest temporary arrays     est. size (Mb)     dimensions
        Auxiliary wavefunctions         0.87 Mb     (    3560,   16)
        Each subspace H/S matrix        0.00 Mb     (      16,   16)
        Each <psi_i|beta_j> matrix      0.00 Mb     (       8,    4)
        Arrays for rho mixing           6.75 Mb     (   55296,    8)

     Initial potential from superposition of free atoms
     Check: negative starting charge=   -0.004620

     starting charge    7.99985, renormalised to    8.00000

     negative rho (up, down):  4.620E-03 0.000E+00
     Starting wfc are    8 randomized atomic wfcs

     total cpu time spent up to now is        0.3 secs

     per-process dynamical memory:    17.4 Mb

     Self-consistent Calculation

     iteration #  1     ecut=    25.00 Ry     beta=0.50
     Davidson diagonalization with overlap
     ethr =  1.00E-02,  avg # of iterations =  2.0

     negative rho (up, down):  6.286E-03 0.000E+00

     total cpu time spent up to now is        0.4 secs

     total energy              =     -15.82849254 Ry
     Harris-Foulkes estimate   =     -16.28217455 Ry
     estimated scf accuracy    <       0.76961114 Ry

     iteration #  2     ecut=    25.00 Ry     beta=0.50
     Davidson diagonalization with overlap
     ethr =  9.62E-03,  avg # of iterations =  2.0

     negative rho (up, down):  6.342E-03 0.000E+00

     total cpu time spent up to now is        0.5 secs

     total energy              =     -15.99743831 Ry
     Harris-Foulkes estimate   =     -16.01774570 Ry
     estimated scf accuracy    <       0.04908543 Ry

     iteration #  3     ecut=    25.00 Ry     beta=0.50
     Davidson diagonalization with overlap
     ethr =  6.14E-04,  avg # of iterations =  2.0

     negative rho (up, down):  8.614E-03 0.000E+00

     total cpu time spent up to now is        0.6 secs

     total energy              =     -15.99958305 Ry
     Harris-Foulkes estimate   =     -16.00491926 Ry
     estimated scf accuracy    <       0.01250771 Ry

     iteration #  4     ecut=    25.00 Ry     beta=0.50
     Davidson diagonalization with overlap
     ethr =  1.56E-04,  avg # of iterations =  2.0

     negative rho (up, down):  7.761E-03 0.000E+00

     total cpu time spent up to now is        0.6 secs

     total energy              =     -16.00001090 Ry
     Harris-Foulkes estimate   =     -16.00244799 Ry
     estimated scf accuracy    <       0.00549335 Ry

     iteration #  5     ecut=    25.00 Ry     beta=0.50
     Davidson diagonalization with overlap
     ethr =  6.87E-05,  avg # of iterations =  1.0

     negative rho (up, down):  7.787E-03 0.000E+00

     total cpu time spent up to now is        0.7 secs

     total energy              =     -16.00029589 Ry
     Harris-Foulkes estimate   =     -16.00034090 Ry
     estimated scf accuracy    <       0.00025825 Ry

     iteration #  6     ecut=    25.00 Ry     beta=0.50
     Davidson diagonalization with overlap
     ethr =  3.23E-06,  avg # of iterations =  3.0

     negative rho (up, down):  7.871E-03 0.000E+00

     total cpu time spent up to now is        0.8 secs

     total energy              =     -16.00035794 Ry
     Harris-Foulkes estimate   =     -16.00037540 Ry
     estimated scf accuracy    <       0.00004126 Ry

     iteration #  7     ecut=    25.00 Ry     beta=0.50
     Davidson diagonalization with overlap
     ethr =  5.16E-07,  avg # of iterations =  2.0

     negative rho (up, down):  7.886E-03 0.000E+00

     total cpu time spent up to now is        0.9 secs

     total energy              =     -16.00036284 Ry
     Harris-Foulkes estimate   =     -16.00036494 Ry
     estimated scf accuracy    <       0.00000849 Ry

     iteration #  8     ecut=    25.00 Ry     beta=0.50
     Davidson diagonalization with overlap
     ethr =  1.06E-07,  avg # of iterations =  2.0

     negative rho (up, down):  7.884E-03 0.000E+00

     total cpu time spent up to now is        0.9 secs

     total energy              =     -16.00036267 Ry
     Harris-Foulkes estimate   =     -16.00036390 Ry
     estimated scf accuracy    <       0.00000493 Ry

     iteration #  9     ecut=    25.00 Ry     beta=0.50
     Davidson diagonalization with overlap
     ethr =  6.16E-08,  avg # of iterations =  1.0

     negative rho (up, down):  7.886E-03 0.000E+00

     total cpu time spent up to now is        1.0 secs

     total energy              =     -16.00036208 Ry
     Harris-Foulkes estimate   =     -16.00036272 Ry
     estimated scf accuracy    <       0.00000233 Ry

     iteration # 10     ecut=    25.00 Ry     beta=0.50
     Davidson diagonalization with overlap
     ethr =  2.91E-08,  avg # of iterations =  1.0

     negative rho (up, down):  7.888E-03 0.000E+00

     total cpu time spent up to now is        1.1 secs

     total energy              =     -16.00036217 Ry
     Harris-Foulkes estimate   =     -16.00036224 Ry
     estimated scf accuracy    <       0.00000046 Ry

     iteration # 11     ecut=    25.00 Ry     beta=0.50
     Davidson diagonalization with overlap
     ethr =  5.80E-09,  avg # of iterations =  1.0

     negative rho (up, down):  7.890E-03 0.000E+00

     total cpu time spent up to now is        1.2 secs

     total energy              =     -16.00036214 Ry
     Harris-Foulkes estimate   =     -16.00036218 Ry
     estimated scf accuracy    <       0.00000029 Ry

     iteration # 12     ecut=    25.00 Ry     beta=0.50
     Davidson diagonalization with overlap
     ethr =  3.58E-09,  avg # of iterations =  1.0

     negative rho (up, down):  7.892E-03 0.000E+00

     total cpu time spent up to now is        1.3 secs

     total energy              =     -16.00036216 Ry
     Harris-Foulkes estimate   =     -16.00036216 Ry
     estimated scf accuracy    <       0.00000012 Ry

     iteration # 13     ecut=    25.00 Ry     beta=0.50
     Davidson diagonalization with overlap
     ethr =  1.52E-09,  avg # of iterations =  1.0

     negative rho (up, down):  7.899E-03 0.000E+00

     total cpu time spent up to now is        1.3 secs

     total energy              =     -16.00036215 Ry
     Harris-Foulkes estimate   =     -16.00036216 Ry
     estimated scf accuracy    <       0.00000010 Ry

     iteration # 14     ecut=    25.00 Ry     beta=0.50
     Davidson diagonalization with overlap
     ethr =  1.31E-09,  avg # of iterations =  1.0

     negative rho (up, down):  7.906E-03 0.000E+00

     total cpu time spent up to now is        1.4 secs

     total energy              =     -16.00036214 Ry
     Harris-Foulkes estimate   =     -16.00036215 Ry
     estimated scf accuracy    <       0.00000004 Ry

     iteration # 15     ecut=    25.00 Ry     beta=0.50
     Davidson diagonalization with overlap
     ethr =  5.15E-10,  avg # of iterations =  1.0

     negative rho (up, down):  7.905E-03 0.000E+00

     total cpu time spent up to now is        1.5 secs

     total energy              =     -16.00036213 Ry
     Harris-Foulkes estimate   =     -16.00036215 Ry
     estimated scf accuracy    <       0.00000002 Ry

     iteration # 16     ecut=    25.00 Ry     beta=0.50
     Davidson diagonalization with overlap
     ethr =  3.02E-10,  avg # of iterations =  2.0

     negative rho (up, down):  7.905E-03 0.000E+00

     total cpu time spent up to now is        1.6 secs

     End of self-consistent calculation

          k = 0.0000 0.0000 0.0000 (  7123 PWs)   bands (ev):

   -16.4340  -8.9762  -8.9762  -8.9762

     highest occupied level (ev):    -8.9762

!    total energy              =     -16.00036214 Ry
     Harris-Foulkes estimate   =     -16.00036214 Ry
     estimated scf accuracy    <          5.4E-10 Ry

     The total energy is the sum of the following terms:

     one-electron contribution =     -35.04004684 Ry
     hartree contribution      =      18.32674974 Ry
     xc contribution           =      -6.11312821 Ry
     ewald contribution        =       6.82606317 Ry

     convergence has been achieved in  16 iterations

     Forces acting on atoms (Ry/au):

     atom    1 type  1   force =     0.00000331    0.00000331    0.00000331
     atom    2 type  1   force =    -0.00000331   -0.00000331    0.00000331
     atom    3 type  1   force =     0.00000331   -0.00000331   -0.00000331
     atom    4 type  1   force =    -0.00000331    0.00000331   -0.00000331
     atom    5 type  2   force =     0.00000000    0.00000000    0.00000000

     Total force =     0.000011     Total SCF correction =     0.000010
     SCF correction compared to forces is large: reduce conv_thr to get better values

     Writing output data file ch4.save
 
     init_run     :      0.27s CPU      0.28s WALL (       1 calls)
     electrons    :      1.22s CPU      1.24s WALL (       1 calls)
     forces       :      0.04s CPU      0.05s WALL (       1 calls)

     Called by init_run:
     wfcinit      :      0.02s CPU      0.02s WALL (       1 calls)
     potinit      :      0.02s CPU      0.02s WALL (       1 calls)

     Called by electrons:
     c_bands      :      0.33s CPU      0.33s WALL (      16 calls)
     sum_band     :      0.45s CPU      0.45s WALL (      16 calls)
     v_of_rho     :      0.10s CPU      0.10s WALL (      17 calls)
     newd         :      0.20s CPU      0.21s WALL (      17 calls)
     mix_rho      :      0.15s CPU      0.15s WALL (      16 calls)

     Called by c_bands:
     init_us_2    :      0.03s CPU      0.03s WALL (      33 calls)
     cegterg      :      0.29s CPU      0.29s WALL (      16 calls)

     Called by sum_band:
     sum_band:bec :      0.00s CPU      0.00s WALL (      16 calls)
     addusdens    :      0.29s CPU      0.30s WALL (      16 calls)

     Called by *egterg:
     h_psi        :      0.25s CPU      0.26s WALL (      42 calls)
     s_psi        :      0.01s CPU      0.01s WALL (      42 calls)
     g_psi        :      0.00s CPU      0.00s WALL (      25 calls)
     cdiaghg      :      0.00s CPU      0.00s WALL (      41 calls)

     Called by h_psi:
     add_vuspsi   :      0.00s CPU      0.01s WALL (      42 calls)

     General routines
     calbec       :      0.01s CPU      0.01s WALL (      62 calls)
     fft          :      0.12s CPU      0.12s WALL (     103 calls)
     fftw         :      0.26s CPU      0.25s WALL (     402 calls)
 
     Parallel routines
     fft_scatter  :      0.12s CPU      0.12s WALL (     505 calls)
 
     PWSCF        :     1.60s CPU         1.67s WALL

 
   This run was terminated on:  11:11:42  28Jul2016            

=------------------------------------------------------------------------------=
   JOB DONE.
=------------------------------------------------------------------------------=
