ANIMSTEPS  15
CRYSTAL
PRIMVEC
    7.937658129    0.000000000    0.000000000
    0.000000000    7.937658129    0.000000000
    0.000000000    0.000000000    7.937658129
PRIMCOORD  1
      5   1
   H      0.64080   0.64080   0.64080  -0.02630  -0.00011   0.03402
   H     -0.64080  -0.64080   0.64080  -0.02104  -0.00537  -0.02909
   H      0.64080  -0.64080  -0.64080   0.04682  -0.00486   0.03877
   H     -0.64080   0.64080  -0.64080   0.04156  -0.01012  -0.03384
   C      0.00000   0.00000   0.00000   0.01026  -0.00512   0.00246
PRIMCOORD  2
      5   1
   H      0.64080   0.64080   0.64080  -0.01857   0.02647  -0.03283
   H     -0.64080  -0.64080   0.64080   0.01405  -0.00615  -0.04265
   H      0.64080  -0.64080  -0.64080   0.02465   0.02570  -0.03205
   H     -0.64080   0.64080  -0.64080  -0.00797  -0.00693  -0.04343
   C      0.00000   0.00000   0.00000   0.00304   0.00977  -0.03774
PRIMCOORD  3
      5   1
   H      0.64080   0.64080   0.64080  -0.00515   0.03818  -0.03711
   H     -0.64080  -0.64080   0.64080   0.00932   0.02372   0.03818
   H      0.64080  -0.64080  -0.64080   0.00269  -0.03047   0.03155
   H     -0.64080   0.64080  -0.64080  -0.01178  -0.04494  -0.03048
   C      0.00000   0.00000   0.00000  -0.00123  -0.00338   0.00053
PRIMCOORD  4
      5   1
   H      0.64080   0.64080   0.64080  -0.06121  -0.00096   0.01947
   H     -0.64080  -0.64080   0.64080  -0.02055  -0.04162  -0.02065
   H      0.64080  -0.64080  -0.64080   0.00400   0.01460   0.00391
   H     -0.64080   0.64080  -0.64080  -0.03665  -0.02605  -0.00508
   C      0.00000   0.00000   0.00000  -0.02860  -0.01351  -0.00059
PRIMCOORD  5
      5   1
   H      0.64080   0.64080   0.64080  -0.00834   0.00568   0.00706
   H     -0.64080  -0.64080   0.64080  -0.05420   0.05154  -0.00697
   H      0.64080  -0.64080  -0.64080  -0.02190  -0.01259   0.02533
   H     -0.64080   0.64080  -0.64080   0.02396   0.03327  -0.02524
   C      0.00000   0.00000   0.00000  -0.01512   0.01947   0.00005
PRIMCOORD  6
      5   1
   H      0.64080   0.64080   0.64080   0.02928  -0.04706  -0.01536
   H     -0.64080  -0.64080   0.64080  -0.03123   0.01345  -0.00821
   H      0.64080  -0.64080  -0.64080  -0.03300  -0.05244  -0.00998
   H     -0.64080   0.64080  -0.64080   0.02751   0.00808  -0.01359
   C      0.00000   0.00000   0.00000  -0.00186  -0.01949  -0.01178
PRIMCOORD  7
      5   1
   H      0.64080   0.64080   0.64080   0.00644  -0.02527   0.03052
   H     -0.64080  -0.64080   0.64080   0.00664  -0.02507  -0.03021
   H      0.64080  -0.64080  -0.64080  -0.03586  -0.04350   0.01229
   H     -0.64080   0.64080  -0.64080  -0.03606  -0.04330  -0.01197
   C      0.00000   0.00000   0.00000   0.00490   0.01143  -0.00005
PRIMCOORD  8
      5   1
   H      0.64080   0.64080   0.64080   0.02560   0.02091  -0.03782
   H     -0.64080  -0.64080   0.64080  -0.02056  -0.02526  -0.03668
   H      0.64080  -0.64080  -0.64080  -0.02179   0.02327  -0.03545
   H     -0.64080   0.64080  -0.64080   0.02438  -0.02289  -0.03904
   C      0.00000   0.00000   0.00000  -0.00064   0.00033   0.01242
PRIMCOORD  9
      5   1
   H      0.64080   0.64080   0.64080  -0.04200   0.03722   0.00998
   H     -0.64080  -0.64080   0.64080  -0.04466   0.03456  -0.01426
   H      0.64080  -0.64080  -0.64080  -0.02647  -0.00521  -0.03245
   H     -0.64080   0.64080  -0.64080  -0.02381  -0.00787   0.02817
   C      0.00000   0.00000   0.00000   0.01141  -0.00489   0.00071
PRIMCOORD 10
      5   1
   H      0.64080   0.64080   0.64080   0.00126   0.03471  -0.03597
   H     -0.64080  -0.64080   0.64080  -0.00126  -0.03471  -0.03597
   H      0.64080  -0.64080  -0.64080   0.00126  -0.03471   0.03597
   H     -0.64080   0.64080  -0.64080  -0.00126   0.03471   0.03597
   C      0.00000   0.00000   0.00000   0.00000  -0.00000  -0.00000
PRIMCOORD 11
      5   1
   H      0.64080   0.64080   0.64080  -0.04081   0.02150   0.01931
   H     -0.64080  -0.64080   0.64080   0.04081  -0.02150   0.01931
   H      0.64080  -0.64080  -0.64080  -0.04081  -0.02150  -0.01931
   H     -0.64080   0.64080  -0.64080   0.04081   0.02150  -0.01931
   C      0.00000   0.00000   0.00000  -0.00000  -0.00000   0.00000
PRIMCOORD 12
      5   1
   H      0.64080   0.64080   0.64080  -0.02887  -0.02887  -0.02887
   H     -0.64080  -0.64080   0.64080   0.02887   0.02887  -0.02887
   H      0.64080  -0.64080  -0.64080  -0.02887   0.02887   0.02887
   H     -0.64080   0.64080  -0.64080   0.02887  -0.02887   0.02887
   C      0.00000   0.00000   0.00000   0.00000  -0.00000  -0.00000
PRIMCOORD 13
      5   1
   H      0.64080   0.64080   0.64080   0.03808   0.03891   0.03990
   H     -0.64080  -0.64080   0.64080   0.03808   0.03891  -0.03990
   H      0.64080  -0.64080  -0.64080   0.00999  -0.01280  -0.01181
   H     -0.64080   0.64080  -0.64080   0.00999  -0.01280   0.01181
   C      0.00000   0.00000   0.00000  -0.00801  -0.00435   0.00000
PRIMCOORD 14
      5   1
   H      0.64080   0.64080   0.64080  -0.02942  -0.02942  -0.02735
   H     -0.64080  -0.64080   0.64080   0.02942   0.02942  -0.02735
   H      0.64080  -0.64080  -0.64080   0.02942  -0.02942  -0.02735
   H     -0.64080   0.64080  -0.64080  -0.02942   0.02942  -0.02735
   C      0.00000   0.00000   0.00000   0.00000  -0.00000   0.00912
PRIMCOORD 15
      5   1
   H      0.64080   0.64080   0.64080   0.01280   0.00999   0.01181
   H     -0.64080  -0.64080   0.64080   0.01280   0.00999  -0.01181
   H      0.64080  -0.64080  -0.64080  -0.03891   0.03808   0.03990
   H     -0.64080   0.64080  -0.64080  -0.03891   0.03808  -0.03990
   C      0.00000   0.00000   0.00000   0.00435  -0.00801  -0.00000
