[Molden Format]
[FREQ]
    0.00
    0.00
    0.00
    0.00
    0.00
    0.00
 1218.61
 1218.61
 1218.61
 1450.15
 1450.15
 2928.23
 3054.98
 3054.98
 3054.98
[FR-COORD]
   H           1.21093        1.21093        1.21093
   H          -1.21093       -1.21093        1.21093
   H           1.21093       -1.21093       -1.21093
   H          -1.21093        1.21093       -1.21093
   C           0.00000        0.00000        0.00000
[FR-NORM-COORD]
 vibration     1
  -0.26302  -0.00112   0.34022
  -0.21043  -0.05371  -0.29092
   0.46823  -0.04865   0.38774
   0.41565  -0.10123  -0.33845
   0.10261  -0.05118   0.02465
 vibration     2
  -0.18571   0.26472  -0.32828
   0.14055  -0.06154  -0.42652
   0.24654   0.25696  -0.32053
  -0.07972  -0.06929  -0.43428
   0.03042   0.09771  -0.37740
 vibration     3
  -0.05146   0.38185  -0.37111
   0.09317   0.23722   0.38178
   0.02685  -0.30473   0.31546
  -0.11777  -0.44935  -0.30480
  -0.01230  -0.03375   0.00533
 vibration     4
  -0.61205  -0.00964   0.19474
  -0.20553  -0.41617  -0.20649
   0.04003   0.14603   0.03907
  -0.36650  -0.26050  -0.05081
  -0.28601  -0.13507  -0.00587
 vibration     5
  -0.08342   0.05678   0.07064
  -0.54202   0.51539  -0.06967
  -0.21903  -0.12590   0.25332
   0.23958   0.33270  -0.25235
  -0.15122   0.19474   0.00048
 vibration     6
   0.29284  -0.47063  -0.15359
  -0.31233   0.13454  -0.08211
  -0.33005  -0.52439  -0.09983
   0.27511   0.08078  -0.13586
  -0.01861  -0.19493  -0.11785
 vibration     7
   0.06442  -0.25272   0.30524
   0.06640  -0.25074  -0.30206
  -0.35859  -0.43502   0.12293
  -0.36057  -0.43305  -0.11975
   0.04903   0.11429  -0.00053
 vibration     8
   0.25605   0.20911  -0.37816
  -0.20563  -0.25256  -0.36681
  -0.21791   0.23275  -0.35453
   0.24377  -0.22893  -0.39044
  -0.00636   0.00330   0.12416
 vibration     9
  -0.42003   0.37221   0.09979
  -0.44659   0.34565  -0.14265
  -0.26468  -0.05213  -0.32455
  -0.23812  -0.07869   0.28169
   0.11412  -0.04892   0.00714
 vibration    10
   0.01262   0.34707  -0.35970
  -0.01262  -0.34707  -0.35970
   0.01262  -0.34707   0.35970
  -0.01262   0.34707   0.35970
   0.00000  -0.00000  -0.00000
 vibration    11
  -0.40805   0.21496   0.19310
   0.40805  -0.21496   0.19310
  -0.40805  -0.21496  -0.19310
   0.40805   0.21496  -0.19310
  -0.00000  -0.00000   0.00000
 vibration    12
  -0.28868  -0.28868  -0.28868
   0.28868   0.28868  -0.28868
  -0.28868   0.28868   0.28868
   0.28868  -0.28868   0.28868
   0.00000  -0.00000  -0.00000
 vibration    13
   0.38076   0.38907   0.39896
   0.38076   0.38907  -0.39896
   0.09992  -0.12801  -0.11812
   0.09992  -0.12801   0.11812
  -0.08011  -0.04351   0.00000
 vibration    14
  -0.29421  -0.29421  -0.27350
   0.29421   0.29421  -0.27350
   0.29421  -0.29421  -0.27350
  -0.29421   0.29421  -0.27350
   0.00000  -0.00000   0.09117
 vibration    15
   0.12801   0.09992   0.11812
   0.12801   0.09992  -0.11812
  -0.38907   0.38076   0.39896
  -0.38907   0.38076  -0.39896
   0.04351  -0.08011  -0.00000
