ANIMSTEPS  15
CRYSTAL
PRIMVEC
    7.937658129    0.000000000    0.000000000
    0.000000000    7.937658129    0.000000000
    0.000000000    0.000000000    7.937658129
PRIMCOORD  1
      5   1
   H      0.64080   0.64080   0.64080  -0.00522  -0.00228   0.04111
   H     -0.64080  -0.64080   0.64080   0.00040  -0.00791   0.04657
   H      0.64080  -0.64080  -0.64080  -0.00533  -0.00201   0.04084
   H     -0.64080   0.64080  -0.64080  -0.01095  -0.00764   0.04684
   C      0.00000   0.00000   0.00000  -0.00528  -0.00496   0.04384
PRIMCOORD  2
      5   1
   H      0.64080   0.64080   0.64080  -0.00292   0.02048   0.02530
   H     -0.64080  -0.64080   0.64080  -0.00484   0.02239  -0.01464
   H      0.64080  -0.64080  -0.64080   0.04888   0.00669   0.03909
   H     -0.64080   0.64080  -0.64080   0.05080   0.00860  -0.02843
   C      0.00000   0.00000   0.00000   0.02298   0.01454   0.00533
PRIMCOORD  3
      5   1
   H      0.64080   0.64080   0.64080   0.04648  -0.02302  -0.00197
   H     -0.64080  -0.64080   0.64080   0.01240   0.01106   0.00605
   H      0.64080  -0.64080  -0.64080  -0.03217   0.01352  -0.03851
   H     -0.64080   0.64080  -0.64080   0.00192   0.04761   0.04260
   C      0.00000   0.00000   0.00000   0.00716   0.01229   0.00204
PRIMCOORD  4
      5   1
   H      0.64080   0.64080   0.64080   0.02787   0.02615  -0.04775
   H     -0.64080  -0.64080   0.64080   0.02220   0.03182   0.04827
   H      0.64080  -0.64080  -0.64080  -0.01468  -0.03299   0.01139
   H     -0.64080   0.64080  -0.64080  -0.00901  -0.02732  -0.01087
   C      0.00000   0.00000   0.00000   0.00659  -0.00059   0.00026
PRIMCOORD  5
      5   1
   H      0.64080   0.64080   0.64080   0.02147  -0.03060   0.00680
   H     -0.64080  -0.64080   0.64080   0.04426  -0.05339  -0.00817
   H      0.64080  -0.64080  -0.64080   0.02701   0.00162  -0.02542
   H     -0.64080   0.64080  -0.64080   0.00421  -0.02118   0.02405
   C      0.00000   0.00000   0.00000   0.02424  -0.02589  -0.00069
PRIMCOORD  6
      5   1
   H      0.64080   0.64080   0.64080  -0.02162   0.03989  -0.00730
   H     -0.64080  -0.64080   0.64080   0.04360  -0.02533   0.00704
   H      0.64080  -0.64080  -0.64080   0.02286   0.04629  -0.01370
   H     -0.64080   0.64080  -0.64080  -0.04236  -0.01892   0.01344
   C      0.00000   0.00000   0.00000   0.00062   0.01048  -0.00013
PRIMCOORD  7
      5   1
   H      0.64080   0.64080   0.64080  -0.04407   0.02974   0.01974
   H     -0.64080  -0.64080   0.64080  -0.03967   0.03413  -0.01264
   H      0.64080  -0.64080  -0.64080  -0.02762  -0.01469  -0.02469
   H     -0.64080   0.64080  -0.64080  -0.03202  -0.01030   0.03179
   C      0.00000   0.00000   0.00000   0.01195  -0.00324  -0.00118
PRIMCOORD  8
      5   1
   H      0.64080   0.64080   0.64080   0.01275  -0.02968   0.02799
   H     -0.64080  -0.64080   0.64080   0.01226  -0.03017  -0.02878
   H      0.64080  -0.64080  -0.64080  -0.03235  -0.04183   0.01584
   H     -0.64080   0.64080  -0.64080  -0.03187  -0.04232  -0.01663
   C      0.00000   0.00000   0.00000   0.00327   0.01200   0.00013
PRIMCOORD  9
      5   1
   H      0.64080   0.64080   0.64080   0.01889   0.02638  -0.03589
   H     -0.64080  -0.64080   0.64080  -0.02715  -0.01965  -0.03838
   H      0.64080  -0.64080  -0.64080  -0.02552   0.02227  -0.04001
   H     -0.64080   0.64080  -0.64080   0.02051  -0.02376  -0.03427
   C      0.00000   0.00000   0.00000   0.00111  -0.00044   0.01238
PRIMCOORD 10
      5   1
   H      0.64080   0.64080   0.64080   0.02321   0.01748  -0.04069
   H     -0.64080  -0.64080   0.64080  -0.02321  -0.01748  -0.04069
   H      0.64080  -0.64080  -0.64080   0.02321  -0.01748   0.04069
   H     -0.64080   0.64080  -0.64080  -0.02321   0.01748   0.04069
   C      0.00000   0.00000   0.00000   0.00000   0.00000   0.00000
PRIMCOORD 11
      5   1
   H      0.64080   0.64080   0.64080  -0.03358   0.03689  -0.00331
   H     -0.64080  -0.64080   0.64080   0.03358  -0.03689  -0.00331
   H      0.64080  -0.64080  -0.64080  -0.03358  -0.03689   0.00331
   H     -0.64080   0.64080  -0.64080   0.03358   0.03689   0.00331
   C      0.00000   0.00000   0.00000  -0.00000   0.00000   0.00000
PRIMCOORD 12
      5   1
   H      0.64080   0.64080   0.64080   0.02887   0.02887   0.02887
   H     -0.64080  -0.64080   0.64080  -0.02887  -0.02887   0.02887
   H      0.64080  -0.64080  -0.64080   0.02887  -0.02887  -0.02887
   H     -0.64080   0.64080  -0.64080  -0.02887   0.02887  -0.02887
   C      0.00000   0.00000   0.00000  -0.00000  -0.00000  -0.00000
PRIMCOORD 13
      5   1
   H      0.64080   0.64080   0.64080   0.03926   0.03854   0.04032
   H     -0.64080  -0.64080   0.64080   0.03926   0.03854  -0.04032
   H      0.64080  -0.64080  -0.64080  -0.01133   0.00849   0.01027
   H     -0.64080   0.64080  -0.64080  -0.01133   0.00849  -0.01027
   C      0.00000   0.00000   0.00000  -0.00466  -0.00784  -0.00000
PRIMCOORD 14
      5   1
   H      0.64080   0.64080   0.64080  -0.02942  -0.02942  -0.02735
   H     -0.64080  -0.64080   0.64080   0.02942   0.02942  -0.02735
   H      0.64080  -0.64080  -0.64080   0.02942  -0.02942  -0.02735
   H     -0.64080   0.64080  -0.64080  -0.02942   0.02942  -0.02735
   C      0.00000   0.00000   0.00000  -0.00000  -0.00000   0.00912
PRIMCOORD 15
      5   1
   H      0.64080   0.64080   0.64080  -0.00849  -0.01133  -0.01027
   H     -0.64080  -0.64080   0.64080  -0.00849  -0.01133   0.01027
   H      0.64080  -0.64080  -0.64080  -0.03854   0.03926   0.04032
   H     -0.64080   0.64080  -0.64080  -0.03854   0.03926  -0.04032
   C      0.00000   0.00000   0.00000   0.00784  -0.00466  -0.00000
