[Molden Format]
[FREQ]
    0.00
    0.00
    0.00
    0.00
    0.00
    0.00
 1218.61
 1218.61
 1218.61
 1450.16
 1450.16
 2928.23
 3054.98
 3054.98
 3054.98
[FR-COORD]
   H           1.21093        1.21093        1.21093
   H          -1.21093       -1.21093        1.21093
   H           1.21093       -1.21093       -1.21093
   H          -1.21093        1.21093       -1.21093
   C           0.00000        0.00000        0.00000
[FR-NORM-COORD]
 vibration     1
  -0.05222  -0.02285   0.41108
   0.00402  -0.07909   0.46567
  -0.05329  -0.02013   0.40836
  -0.10953  -0.07637   0.46839
  -0.05275  -0.04961   0.43838
 vibration     2
  -0.02924   0.20476   0.25298
  -0.04841   0.22394  -0.14638
   0.48884   0.06687   0.39087
   0.50801   0.08605  -0.28427
   0.22980   0.14540   0.05330
 vibration     3
   0.46484  -0.23021  -0.01969
   0.12401   0.11062   0.06054
  -0.32168   0.13525  -0.38515
   0.01915   0.47608   0.42600
   0.07158   0.12293   0.02043
 vibration     4
   0.27871   0.26150  -0.47751
   0.22201   0.31820   0.48274
  -0.14683  -0.32992   0.11390
  -0.09013  -0.27322  -0.10868
   0.06594  -0.00586   0.00261
 vibration     5
   0.21465  -0.30602   0.06798
   0.44256  -0.53392  -0.08169
   0.27005   0.01615  -0.25419
   0.04215  -0.21175   0.24048
   0.24235  -0.25889  -0.00686
 vibration     6
  -0.21617   0.39890  -0.07300
   0.43598  -0.25325   0.07042
   0.22855   0.46291  -0.13701
  -0.42360  -0.18924   0.13443
   0.00619   0.10483  -0.00129
 vibration     7
  -0.44069   0.29739   0.19737
  -0.39673   0.34134  -0.12644
  -0.27624  -0.14691  -0.24694
  -0.32020  -0.10296   0.31786
   0.11949  -0.03240  -0.01182
 vibration     8
   0.12751  -0.29680   0.27989
   0.12264  -0.30167  -0.28777
  -0.32354  -0.41828   0.15841
  -0.31866  -0.42316  -0.16628
   0.03267   0.11999   0.00131
 vibration     9
   0.18886   0.26383  -0.35894
  -0.27147  -0.19650  -0.38384
  -0.25523   0.22269  -0.40008
   0.20509  -0.23763  -0.34271
   0.01106  -0.00437   0.12380
 vibration    10
   0.23213   0.17477  -0.40690
  -0.23213  -0.17477  -0.40690
   0.23213  -0.17477   0.40690
  -0.23213   0.17477   0.40690
   0.00000   0.00000   0.00000
 vibration    11
  -0.33583   0.36895  -0.03311
   0.33583  -0.36895  -0.03311
  -0.33583  -0.36895   0.03311
   0.33583   0.36895   0.03311
  -0.00000   0.00000   0.00000
 vibration    12
   0.28868   0.28868   0.28868
  -0.28868  -0.28868   0.28868
   0.28868  -0.28868  -0.28868
  -0.28868   0.28868  -0.28868
  -0.00000  -0.00000  -0.00000
 vibration    13
   0.39263   0.38540   0.40321
   0.39263   0.38540  -0.40321
  -0.11325   0.08486   0.10267
  -0.11325   0.08486  -0.10267
  -0.04656  -0.07838  -0.00000
 vibration    14
  -0.29421  -0.29421  -0.27350
   0.29421   0.29421  -0.27350
   0.29421  -0.29421  -0.27350
  -0.29421   0.29421  -0.27350
  -0.00000  -0.00000   0.09117
 vibration    15
  -0.08486  -0.11325  -0.10267
  -0.08486  -0.11325   0.10267
  -0.38540   0.39263   0.40321
  -0.38540   0.39263  -0.40321
   0.07838  -0.04656  -0.00000
