
     Program PHONON v.5.4.0 (svn rev. 12650M) starts on  3Aug2016 at 11:20:48 

     This program is part of the open-source Quantum ESPRESSO suite
     for quantum simulation of materials; please cite
         "P. Giannozzi et al., J. Phys.:Condens. Matter 21 395502 (2009);
          URL http://www.quantum-espresso.org", 
     in publications or presentations arising from this work. More details at
     http://www.quantum-espresso.org/quote
 
           HOST :    x86_64-pc-linux-gnu
           ARCH :    x86_64
             CC :    icc
            CPP :    cpp
            F90 :    ifort
            F77 :    ifort
         DFLAGS :    -D__INTEL -D__FFTW -D__MPI -D__PARA -D__HDF5
      BLAS LIBS :    -lmkl_intel_lp64  -lmkl_sequential -lmkl_core
    LAPACK LIBS :    
       FFT LIBS :    
      MASS LIBS :    

     Parallel version (MPI), running on     4 processors
     path-images division:  nimage    =       2
     R & G space division:  proc/nbgrp/npool/nimage =       2

     Reading data from directory:
     /home/nvarini/espresso_hdf5/espresso/tempdir/_ph0/alas.save

   Info: using nr1, nr2, nr3 values from input

   Info: using nr1, nr2, nr3 values from input

     IMPORTANT: XC functional enforced from input :
     Exchange-correlation      =  SLA  PZ   NOGX NOGC ( 1  1  0  0 0 0)
     Any further DFT definition will be discarded
     Please, verify this is what you really want

 
     Parallelization info
     --------------------
     sticks:   dense  smooth     PW     G-vecs:    dense   smooth      PW
     Min         120     120     42                 1221     1221     264
     Max         121     121     43                 1224     1224     267
     Sum         241     241     85                 2445     2445     531
 

      Image parallelization. There are  2 images and    38 representations
      The estimated total work is   336 self-consistent (scf) runs
      I am image number     0 and my work is about  165 scf runs. I calculate: 
      q point number     1, representations:
       0 1 2
      q point number     2, representations:
       0 1 2 3 4
      q point number     3, representations:
       0 1 2 3 4
      q point number     4, representations:
       0 1 2 3 4 5 6
      q point number     5, representations:
       0 1 2 3 4
        5 /   8 q-points for this run, from  4 to  8:
       N       xq(1)         xq(2)         xq(3) 
       1   0.000000000   0.000000000   0.000000000
       2  -0.250000000   0.250000000  -0.250000000
       3   0.500000000  -0.500000000   0.500000000
       4   0.000000000   0.500000000   0.000000000
       5   0.750000000  -0.250000000   0.750000000
       6   0.500000000   0.000000000   0.500000000
       7   0.000000000  -1.000000000   0.000000000
       8  -0.500000000  -1.000000000   0.000000000
 

     Calculation of q =    0.0000000   0.5000000   0.0000000

     Bands found: reading from /home/nvarini/espresso_hdf5/espresso/tempdir/_ph0/

     Reading data from directory:
     /home/nvarini/espresso_hdf5/espresso/tempdir/_ph0/alas.save

   Info: using nr1, nr2, nr3 values from input

   Info: using nr1, nr2, nr3 values from input

     IMPORTANT: XC functional enforced from input :
     Exchange-correlation      =  SLA  PZ   NOGX NOGC ( 1  1  0  0 0 0)
     Any further DFT definition will be discarded
     Please, verify this is what you really want

 
     Parallelization info
     --------------------
     sticks:   dense  smooth     PW     G-vecs:    dense   smooth      PW
     Min         120     120     42                 1221     1221     264
     Max         121     121     43                 1224     1224     267
     Sum         241     241     85                 2445     2445     531
 

     Restart in Phonon calculation

                                                                                

     bravais-lattice index     =            2
     lattice parameter (alat)  =      10.5000  a.u.
     unit-cell volume          =     289.4062 (a.u.)^3
     number of atoms/cell      =            2
     number of atomic types    =            2
     kinetic-energy cut-off    =      16.0000  Ry
     charge density cut-off    =      64.0000  Ry
     convergence threshold     =      1.0E-12
     beta                      =       0.7000
     number of iterations used =            4
     Exchange-correlation      =  SLA  PZ   NOGX NOGC ( 1  1  0  0 0 0)


     celldm(1)=   10.50000  celldm(2)=    0.00000  celldm(3)=    0.00000
     celldm(4)=    0.00000  celldm(5)=    0.00000  celldm(6)=    0.00000

     crystal axes: (cart. coord. in units of alat)
               a(1) = ( -0.5000  0.0000  0.5000 )  
               a(2) = (  0.0000  0.5000  0.5000 )  
               a(3) = ( -0.5000  0.5000  0.0000 )  

     reciprocal axes: (cart. coord. in units 2 pi/alat)
               b(1) = ( -1.0000 -1.0000  1.0000 )  
               b(2) = (  1.0000  1.0000  1.0000 )  
               b(3) = ( -1.0000  1.0000 -1.0000 )  


     Atoms inside the unit cell: 

     Cartesian axes

     site n.  atom      mass           positions (alat units)
        1     Al  26.9800   tau(    1) = (    0.00000    0.00000    0.00000  )
        2     As  74.9200   tau(    2) = (    0.25000    0.25000    0.25000  )

     Computing dynamical matrix for 
                    q = (   0.0000000   0.5000000   0.0000000 )
 
      4 Sym.Ops. (no q -> -q+G )


     G cutoff =  178.7306  (   1224 G-vectors)     FFT grid: ( 20, 20, 20)
     number of k points=    24

     PseudoPot. # 1 for Al read from file:
     /home/nvarini/espresso_hdf5/espresso/pseudo/Al.pz-vbc.UPF
     MD5 check sum: 614279c88ff8d45c90147292d03ed420
     Pseudo is Norm-conserving, Zval =  3.0
     Generated by new atomic code, or converted to UPF format
     Using radial grid of  171 points,  2 beta functions with: 
                l(1) =   0
                l(2) =   1

     PseudoPot. # 2 for As read from file:
     /home/nvarini/espresso_hdf5/espresso/pseudo/As.pz-bhs.UPF
     MD5 check sum: 451cd3365afcfc94d28b1934951c34a8
     Pseudo is Norm-conserving, Zval =  5.0
     Generated by new atomic code, or converted to UPF format
     Using radial grid of  525 points,  2 beta functions with: 
                l(1) =   0
                l(2) =   1

     Mode symmetry, C_2v (mm2)  point group:


     Atomic displacements:
     There are   6 irreducible representations

     Representation     1      1 modes -A_1  D_1  S_1  Done

     Representation     2      1 modes -A_1  D_1  S_1  Done

     Representation     3      1 modes -B_1  D_3  S_3  Done

     Representation     4      1 modes -B_1  D_3  S_3  To be done

     Representation     5      1 modes -B_2  D_4  S_4  To be done

     Representation     6      1 modes -B_2  D_4  S_4  To be done


     PHONON       :     0.86s CPU         0.87s WALL



     Representation #  4 mode #   4

     Self-consistent Calculation

      iter #   4 total cpu time :     0.9 secs   av.it.:   8.0
      thresh= 1.961E-06 alpha_mix =  0.700 |ddv_scf|^2 =  1.530E-11

      iter #   5 total cpu time :     1.0 secs   av.it.:   8.2
      thresh= 3.912E-07 alpha_mix =  0.700 |ddv_scf|^2 =  6.680E-14

     End of self-consistent calculation

     Convergence has been achieved 


     Representation #  5 mode #   5

     Self-consistent Calculation

      iter #   1 total cpu time :     1.1 secs   av.it.:   5.8
      thresh= 1.000E-02 alpha_mix =  0.700 |ddv_scf|^2 =  8.766E-06

      iter #   2 total cpu time :     1.2 secs   av.it.:   8.4
      thresh= 2.961E-04 alpha_mix =  0.700 |ddv_scf|^2 =  1.179E-06

      iter #   3 total cpu time :     1.3 secs   av.it.:   8.2
      thresh= 1.086E-04 alpha_mix =  0.700 |ddv_scf|^2 =  3.852E-10

      iter #   4 total cpu time :     1.3 secs   av.it.:   8.0
      thresh= 1.963E-06 alpha_mix =  0.700 |ddv_scf|^2 =  1.531E-11

      iter #   5 total cpu time :     1.4 secs   av.it.:   8.2
      thresh= 3.913E-07 alpha_mix =  0.700 |ddv_scf|^2 =  6.693E-14

     End of self-consistent calculation

     Convergence has been achieved 


     Representation #  6 mode #   6

     Self-consistent Calculation

      iter #   1 total cpu time :     1.5 secs   av.it.:   4.9
      thresh= 1.000E-02 alpha_mix =  0.700 |ddv_scf|^2 =  1.095E-06

      iter #   2 total cpu time :     1.5 secs   av.it.:   8.4
      thresh= 1.046E-04 alpha_mix =  0.700 |ddv_scf|^2 =  1.262E-07

      iter #   3 total cpu time :     1.6 secs   av.it.:   8.3
      thresh= 3.553E-05 alpha_mix =  0.700 |ddv_scf|^2 =  6.605E-10

      iter #   4 total cpu time :     1.7 secs   av.it.:   7.9
      thresh= 2.570E-06 alpha_mix =  0.700 |ddv_scf|^2 =  2.112E-11

      iter #   5 total cpu time :     1.8 secs   av.it.:   7.9
      thresh= 4.595E-07 alpha_mix =  0.700 |ddv_scf|^2 =  3.788E-15

     End of self-consistent calculation

     Convergence has been achieved 
 
     Number of q in the star =    6
     List of q in the star:
          1   0.000000000   0.500000000   0.000000000
          2  -0.500000000   0.000000000   0.000000000
          3   0.000000000  -0.500000000   0.000000000
          4   0.000000000   0.000000000   0.500000000
          5   0.000000000   0.000000000  -0.500000000
          6   0.500000000   0.000000000   0.000000000

     Diagonalizing the dynamical matrix

     q = (    0.000000000   0.500000000   0.000000000 ) 

 **************************************************************************
     freq (    1) =       2.421154 [THz] =      80.761010 [cm-1]
     freq (    2) =       2.421154 [THz] =      80.761010 [cm-1]
     freq (    3) =       4.606581 [THz] =     153.659004 [cm-1]
     freq (    4) =      10.666709 [THz] =     355.803098 [cm-1]
     freq (    5) =      10.666709 [THz] =     355.803098 [cm-1]
     freq (    6) =      12.371385 [THz] =     412.664970 [cm-1]
 **************************************************************************

     Mode symmetry, C_2v (mm2)  point group:

     freq (  1 -  1) =         80.8  [cm-1]   --> B_1  D_3  S_3      
     freq (  2 -  2) =         80.8  [cm-1]   --> B_2  D_4  S_4      
     freq (  3 -  3) =        153.7  [cm-1]   --> A_1  D_1  S_1      
     freq (  4 -  4) =        355.8  [cm-1]   --> B_1  D_3  S_3      
     freq (  5 -  5) =        355.8  [cm-1]   --> B_2  D_4  S_4      
     freq (  6 -  6) =        412.7  [cm-1]   --> A_1  D_1  S_1      

     Calculation of q =    0.7500000  -0.2500000   0.7500000
 
     Parallelization info
     --------------------
     sticks:   dense  smooth     PW     G-vecs:    dense   smooth      PW
     Min         120     120     48                 1221     1221     322
     Max         121     121     49                 1224     1224     323
     Sum         241     241     97                 2445     2445     645
 


     bravais-lattice index     =            2
     lattice parameter (alat)  =      10.5000  a.u.
     unit-cell volume          =     289.4062 (a.u.)^3
     number of atoms/cell      =            2
     number of atomic types    =            2
     number of electrons       =         8.00
     number of Kohn-Sham states=            4
     kinetic-energy cutoff     =      16.0000  Ry
     charge density cutoff     =      64.0000  Ry
     Exchange-correlation      =  SLA  PZ   NOGX NOGC ( 1  1  0  0 0 0)

     celldm(1)=  10.500000  celldm(2)=   0.000000  celldm(3)=   0.000000
     celldm(4)=   0.000000  celldm(5)=   0.000000  celldm(6)=   0.000000

     crystal axes: (cart. coord. in units of alat)
               a(1) = (  -0.500000   0.000000   0.500000 )  
               a(2) = (   0.000000   0.500000   0.500000 )  
               a(3) = (  -0.500000   0.500000   0.000000 )  

     reciprocal axes: (cart. coord. in units 2 pi/alat)
               b(1) = ( -1.000000 -1.000000  1.000000 )  
               b(2) = (  1.000000  1.000000  1.000000 )  
               b(3) = ( -1.000000  1.000000 -1.000000 )  


     PseudoPot. # 1 for Al read from file:
     /home/nvarini/espresso_hdf5/espresso/pseudo/Al.pz-vbc.UPF
     MD5 check sum: 614279c88ff8d45c90147292d03ed420
     Pseudo is Norm-conserving, Zval =  3.0
     Generated by new atomic code, or converted to UPF format
     Using radial grid of  171 points,  2 beta functions with: 
                l(1) =   0
                l(2) =   1

     PseudoPot. # 2 for As read from file:
     /home/nvarini/espresso_hdf5/espresso/pseudo/As.pz-bhs.UPF
     MD5 check sum: 451cd3365afcfc94d28b1934951c34a8
     Pseudo is Norm-conserving, Zval =  5.0
     Generated by new atomic code, or converted to UPF format
     Using radial grid of  525 points,  2 beta functions with: 
                l(1) =   0
                l(2) =   1

     atomic species   valence    mass     pseudopotential
        Al             3.00    26.98000     Al( 1.00)
        As             5.00    74.92000     As( 1.00)

     24 Sym. Ops. (no inversion) found



   Cartesian axes

     site n.     atom                  positions (alat units)
         1           Al  tau(   1) = (   0.0000000   0.0000000   0.0000000  )
         2           As  tau(   2) = (   0.2500000   0.2500000   0.2500000  )

     number of k points=    40
                       cart. coord. in units 2pi/alat
        k(    1) = (   0.2500000   0.2500000   0.2500000), wk =   0.0625000
        k(    2) = (   1.0000000   0.0000000   1.0000000), wk =   0.0000000
        k(    3) = (   0.2500000   0.2500000   0.7500000), wk =   0.1250000
        k(    4) = (   1.0000000   0.0000000   1.5000000), wk =   0.0000000
        k(    5) = (  -0.2500000   0.2500000  -0.2500000), wk =   0.0625000
        k(    6) = (   0.5000000   0.0000000   0.5000000), wk =   0.0000000
        k(    7) = (  -0.2500000  -0.2500000   0.2500000), wk =   0.1250000
        k(    8) = (   0.5000000  -0.5000000   1.0000000), wk =   0.0000000
        k(    9) = (  -0.2500000  -0.2500000  -0.2500000), wk =   0.0625000
        k(   10) = (   0.5000000  -0.5000000   0.5000000), wk =   0.0000000
        k(   11) = (   0.2500000   0.2500000  -0.2500000), wk =   0.1250000
        k(   12) = (   1.0000000   0.0000000   0.5000000), wk =   0.0000000
        k(   13) = (   0.2500000  -0.2500000   0.2500000), wk =   0.0625000
        k(   14) = (   1.0000000  -0.5000000   1.0000000), wk =   0.0000000
        k(   15) = (  -0.2500000   0.2500000  -0.7500000), wk =   0.1250000
        k(   16) = (   0.5000000   0.0000000   0.0000000), wk =   0.0000000
        k(   17) = (  -0.2500000  -0.2500000   0.7500000), wk =   0.1250000
        k(   18) = (   0.5000000  -0.5000000   1.5000000), wk =   0.0000000
        k(   19) = (  -0.2500000  -0.7500000   0.2500000), wk =   0.1250000
        k(   20) = (   0.5000000  -1.0000000   1.0000000), wk =   0.0000000
        k(   21) = (  -0.7500000  -0.2500000   0.2500000), wk =   0.1250000
        k(   22) = (   0.0000000  -0.5000000   1.0000000), wk =   0.0000000
        k(   23) = (  -0.2500000   0.7500000  -0.2500000), wk =   0.0625000
        k(   24) = (   0.5000000   0.5000000   0.5000000), wk =   0.0000000
        k(   25) = (   0.2500000   0.7500000   0.2500000), wk =   0.0625000
        k(   26) = (   1.0000000   0.5000000   1.0000000), wk =   0.0000000
        k(   27) = (  -0.2500000  -0.2500000  -0.7500000), wk =   0.1250000
        k(   28) = (   0.5000000  -0.5000000   0.0000000), wk =   0.0000000
        k(   29) = (   0.2500000   0.2500000  -0.7500000), wk =   0.1250000
        k(   30) = (   1.0000000   0.0000000   0.0000000), wk =   0.0000000
        k(   31) = (   0.2500000  -0.2500000   0.7500000), wk =   0.1250000
        k(   32) = (   1.0000000  -0.5000000   1.5000000), wk =   0.0000000
        k(   33) = (  -0.2500000   0.2500000   0.7500000), wk =   0.1250000
        k(   34) = (   0.5000000   0.0000000   1.5000000), wk =   0.0000000
        k(   35) = (  -0.2500000   0.7500000   0.2500000), wk =   0.1250000
        k(   36) = (   0.5000000   0.5000000   1.0000000), wk =   0.0000000
        k(   37) = (  -0.2500000  -0.7500000  -0.2500000), wk =   0.0625000
        k(   38) = (   0.5000000  -1.0000000   0.5000000), wk =   0.0000000
        k(   39) = (   0.2500000  -0.7500000   0.2500000), wk =   0.0625000
        k(   40) = (   1.0000000  -1.0000000   1.0000000), wk =   0.0000000

     Dense  grid:     2445 G-vectors     FFT dimensions: (  20,  20,  20)

     Largest allocated arrays     est. size (Mb)     dimensions
        Kohn-Sham Wavefunctions         0.01 Mb     (     165,    4)
        NL pseudopotentials             0.02 Mb     (     165,    8)
        Each V/rho on FFT grid          0.06 Mb     (    4000)
        Each G-vector array             0.01 Mb     (    1224)
        G-vector shells                 0.00 Mb     (      61)
     Largest temporary arrays     est. size (Mb)     dimensions
        Auxiliary wavefunctions         0.04 Mb     (     165,   16)
        Each subspace H/S matrix        0.00 Mb     (      16,   16)
        Each <psi_i|beta_j> matrix      0.00 Mb     (       8,    4)

     The potential is recalculated from file :
     /home/nvarini/espresso_hdf5/espresso/tempdir/_ph0/alas.save/charge-density.hdf5

     Starting wfc are    8 atomic wfcs

     Band Structure Calculation
     Davidson diagonalization with overlap

     ethr =  1.25E-10,  avg # of iterations = 11.0

     total cpu time spent up to now is        1.7 secs

     End of band structure calculation

          k = 0.2500 0.2500 0.2500 (   311 PWs)   bands (ev):

    -6.3575   1.7035   4.6970   4.6970

          k = 1.0000 0.0000 1.0000 (   302 PWs)   bands (ev):

    -4.8216  -0.4470   2.9274   2.9274

          k = 0.2500 0.2500 0.7500 (   311 PWs)   bands (ev):

    -5.1819  -0.0415   2.3125   3.5086

          k = 1.0000 0.0000 1.5000 (   308 PWs)   bands (ev):

    -4.7852  -0.0517   1.7949   2.1910

          k =-0.2500 0.2500-0.2500 (   311 PWs)   bands (ev):

    -6.3575   1.7035   4.6970   4.6970

          k = 0.5000 0.0000 0.5000 (   315 PWs)   bands (ev):

    -5.5287   0.5005   2.1485   4.2663

          k =-0.2500-0.2500 0.2500 (   311 PWs)   bands (ev):

    -6.3575   1.7035   4.6970   4.6970

          k = 0.5000-0.5000 1.0000 (   315 PWs)   bands (ev):

    -5.5287   0.5005   2.1485   4.2663

          k =-0.2500-0.2500-0.2500 (   311 PWs)   bands (ev):

    -6.3575   1.7035   4.6970   4.6970

          k = 0.5000-0.5000 0.5000 (   302 PWs)   bands (ev):

    -5.4218  -0.6403   4.3483   4.3483

          k = 0.2500 0.2500-0.2500 (   311 PWs)   bands (ev):

    -6.3575   1.7035   4.6970   4.6970

          k = 1.0000 0.0000 0.5000 (   308 PWs)   bands (ev):

    -4.7852  -0.0517   1.7949   2.1910

          k = 0.2500-0.2500 0.2500 (   311 PWs)   bands (ev):

    -6.3575   1.7035   4.6970   4.6970

          k = 1.0000-0.5000 1.0000 (   311 PWs)   bands (ev):

    -6.1430   1.9396   3.7847   3.7847

          k =-0.2500 0.2500-0.7500 (   311 PWs)   bands (ev):

    -5.1819  -0.0415   2.3125   3.5086

          k = 0.5000 0.0000 0.0000 (   311 PWs)   bands (ev):

    -6.1430   1.9396   3.7847   3.7847

          k =-0.2500-0.2500 0.7500 (   311 PWs)   bands (ev):

    -5.1819  -0.0415   2.3125   3.5086

          k = 0.5000-0.5000 1.5000 (   302 PWs)   bands (ev):

    -5.4218  -0.6403   4.3483   4.3483

          k =-0.2500-0.7500 0.2500 (   311 PWs)   bands (ev):

    -5.1819  -0.0415   2.3125   3.5086

          k = 0.5000-1.0000 1.0000 (   311 PWs)   bands (ev):

    -6.1430   1.9396   3.7847   3.7847

          k =-0.7500-0.2500 0.2500 (   311 PWs)   bands (ev):

    -5.1819  -0.0415   2.3125   3.5086

          k = 0.0000-0.5000 1.0000 (   308 PWs)   bands (ev):

    -4.7852  -0.0517   1.7949   2.1910

          k =-0.2500 0.7500-0.2500 (   311 PWs)   bands (ev):

    -5.1819  -0.0415   2.3125   3.5086

          k = 0.5000 0.5000 0.5000 (   302 PWs)   bands (ev):

    -5.4218  -0.6403   4.3483   4.3483

          k = 0.2500 0.7500 0.2500 (   311 PWs)   bands (ev):

    -5.1819  -0.0415   2.3125   3.5086

          k = 1.0000 0.5000 1.0000 (   311 PWs)   bands (ev):

    -6.1430   1.9396   3.7847   3.7847

          k =-0.2500-0.2500-0.7500 (   311 PWs)   bands (ev):

    -5.1819  -0.0415   2.3125   3.5086

          k = 0.5000-0.5000 0.0000 (   315 PWs)   bands (ev):

    -5.5287   0.5005   2.1485   4.2663

          k = 0.2500 0.2500-0.7500 (   311 PWs)   bands (ev):

    -5.1819  -0.0415   2.3125   3.5086

          k = 1.0000 0.0000 0.0000 (   302 PWs)   bands (ev):

    -4.8216  -0.4470   2.9274   2.9274

          k = 0.2500-0.2500 0.7500 (   311 PWs)   bands (ev):

    -5.1819  -0.0415   2.3125   3.5086

          k = 1.0000-0.5000 1.5000 (   315 PWs)   bands (ev):

    -5.5287   0.5005   2.1485   4.2663

          k =-0.2500 0.2500 0.7500 (   311 PWs)   bands (ev):

    -5.1819  -0.0415   2.3125   3.5086

          k = 0.5000 0.0000 1.5000 (   315 PWs)   bands (ev):

    -5.5287   0.5005   2.1485   4.2663

          k =-0.2500 0.7500 0.2500 (   311 PWs)   bands (ev):

    -5.1819  -0.0415   2.3125   3.5086

          k = 0.5000 0.5000 1.0000 (   315 PWs)   bands (ev):

    -5.5287   0.5005   2.1485   4.2663

          k =-0.2500-0.7500-0.2500 (   311 PWs)   bands (ev):

    -5.1819  -0.0415   2.3125   3.5086

          k = 0.5000-1.0000 0.5000 (   315 PWs)   bands (ev):

    -5.5287   0.5005   2.1485   4.2663

          k = 0.2500-0.7500 0.2500 (   311 PWs)   bands (ev):

    -5.1819  -0.0415   2.3125   3.5086

          k = 1.0000-1.0000 1.0000 (   331 PWs)   bands (ev):

    -6.9797   5.1761   5.1761   5.1761

     highest occupied level (ev):     5.1761

     Writing output data file alas.save

                                                                                

     bravais-lattice index     =            2
     lattice parameter (alat)  =      10.5000  a.u.
     unit-cell volume          =     289.4062 (a.u.)^3
     number of atoms/cell      =            2
     number of atomic types    =            2
     kinetic-energy cut-off    =      16.0000  Ry
     charge density cut-off    =      64.0000  Ry
     convergence threshold     =      1.0E-12
     beta                      =       0.7000
     number of iterations used =            4
     Exchange-correlation      =  SLA  PZ   NOGX NOGC ( 1  1  0  0 0 0)


     celldm(1)=   10.50000  celldm(2)=    0.00000  celldm(3)=    0.00000
     celldm(4)=    0.00000  celldm(5)=    0.00000  celldm(6)=    0.00000

     crystal axes: (cart. coord. in units of alat)
               a(1) = ( -0.5000  0.0000  0.5000 )  
               a(2) = (  0.0000  0.5000  0.5000 )  
               a(3) = ( -0.5000  0.5000  0.0000 )  

     reciprocal axes: (cart. coord. in units 2 pi/alat)
               b(1) = ( -1.0000 -1.0000  1.0000 )  
               b(2) = (  1.0000  1.0000  1.0000 )  
               b(3) = ( -1.0000  1.0000 -1.0000 )  


     Atoms inside the unit cell: 

     Cartesian axes

     site n.  atom      mass           positions (alat units)
        1     Al  26.9800   tau(    1) = (    0.00000    0.00000    0.00000  )
        2     As  74.9200   tau(    2) = (    0.25000    0.25000    0.25000  )

     Computing dynamical matrix for 
                    q = (   0.7500000  -0.2500000   0.7500000 )
 
      2 Sym.Ops. (no q -> -q+G )


     G cutoff =  178.7306  (   1224 G-vectors)     FFT grid: ( 20, 20, 20)
     number of k points=    40

     PseudoPot. # 1 for Al read from file:
     /home/nvarini/espresso_hdf5/espresso/pseudo/Al.pz-vbc.UPF
     MD5 check sum: 614279c88ff8d45c90147292d03ed420
     Pseudo is Norm-conserving, Zval =  3.0
     Generated by new atomic code, or converted to UPF format
     Using radial grid of  171 points,  2 beta functions with: 
                l(1) =   0
                l(2) =   1

     PseudoPot. # 2 for As read from file:
     /home/nvarini/espresso_hdf5/espresso/pseudo/As.pz-bhs.UPF
     MD5 check sum: 451cd3365afcfc94d28b1934951c34a8
     Pseudo is Norm-conserving, Zval =  5.0
     Generated by new atomic code, or converted to UPF format
     Using radial grid of  525 points,  2 beta functions with: 
                l(1) =   0
                l(2) =   1

     Mode symmetry, C_s (m)     point group:


     Atomic displacements:
     There are   6 irreducible representations

     Representation     1      1 modes -A'  To be done

     Representation     2      1 modes -A'  To be done

     Representation     3      1 modes -A'  To be done

     Representation     4      1 modes -A'  To be done

     Representation     5      1 modes -A''  Done

     Representation     6      1 modes -A''  Done

     Compute atoms:     1,    2,



     Alpha used in Ewald sum =   0.7000
     PHONON       :     2.24s CPU         2.30s WALL



     Representation #  1 mode #   1

     Self-consistent Calculation

      iter #   1 total cpu time :     2.5 secs   av.it.:  11.2
      thresh= 1.000E-02 alpha_mix =  0.700 |ddv_scf|^2 =  1.315E-04

      iter #   2 total cpu time :     2.7 secs   av.it.:  13.9
      thresh= 1.147E-03 alpha_mix =  0.700 |ddv_scf|^2 =  2.261E-03

      iter #   3 total cpu time :     2.8 secs   av.it.:  12.4
      thresh= 4.755E-03 alpha_mix =  0.700 |ddv_scf|^2 =  6.115E-06

      iter #   4 total cpu time :     3.0 secs   av.it.:  13.2
      thresh= 2.473E-04 alpha_mix =  0.700 |ddv_scf|^2 =  7.872E-06

      iter #   5 total cpu time :     3.2 secs   av.it.:  12.4
      thresh= 2.806E-04 alpha_mix =  0.700 |ddv_scf|^2 =  1.630E-06

      iter #   6 total cpu time :     3.4 secs   av.it.:  13.2
      thresh= 1.277E-04 alpha_mix =  0.700 |ddv_scf|^2 =  1.519E-06

      iter #   7 total cpu time :     3.6 secs   av.it.:  13.4
      thresh= 1.232E-04 alpha_mix =  0.700 |ddv_scf|^2 =  1.069E-06

      iter #   8 total cpu time :     3.8 secs   av.it.:  14.8
      thresh= 1.034E-04 alpha_mix =  0.700 |ddv_scf|^2 =  7.250E-07

      iter #   9 total cpu time :     4.0 secs   av.it.:  14.3
      thresh= 8.515E-05 alpha_mix =  0.700 |ddv_scf|^2 =  4.952E-07

      iter #  10 total cpu time :     4.2 secs   av.it.:  15.3
      thresh= 7.037E-05 alpha_mix =  0.700 |ddv_scf|^2 =  4.849E-07

      iter #  11 total cpu time :     4.4 secs   av.it.:  14.3
      thresh= 6.964E-05 alpha_mix =  0.700 |ddv_scf|^2 =  4.973E-08

      iter #  12 total cpu time :     4.6 secs   av.it.:  14.8
      thresh= 2.230E-05 alpha_mix =  0.700 |ddv_scf|^2 =  1.163E-08

      iter #  13 total cpu time :     4.8 secs   av.it.:  13.9
      thresh= 1.079E-05 alpha_mix =  0.700 |ddv_scf|^2 =  1.590E-10

      iter #  14 total cpu time :     5.0 secs   av.it.:  14.5
      thresh= 1.261E-06 alpha_mix =  0.700 |ddv_scf|^2 =  2.725E-11

      iter #  15 total cpu time :     5.2 secs   av.it.:  14.9
      thresh= 5.220E-07 alpha_mix =  0.700 |ddv_scf|^2 =  4.051E-11

      iter #  16 total cpu time :     5.4 secs   av.it.:  14.1
      thresh= 6.365E-07 alpha_mix =  0.700 |ddv_scf|^2 =  1.780E-12

      iter #  17 total cpu time :     5.6 secs   av.it.:  14.3
      thresh= 1.334E-07 alpha_mix =  0.700 |ddv_scf|^2 =  1.000E-12

      iter #  18 total cpu time :     5.8 secs   av.it.:  13.7
      thresh= 1.000E-07 alpha_mix =  0.700 |ddv_scf|^2 =  3.481E-13

     End of self-consistent calculation

     Convergence has been achieved 


     Representation #  2 mode #   2

     Self-consistent Calculation

      iter #   1 total cpu time :     6.0 secs   av.it.:  10.9
      thresh= 1.000E-02 alpha_mix =  0.700 |ddv_scf|^2 =  1.892E-04

      iter #   2 total cpu time :     6.2 secs   av.it.:  13.8
      thresh= 1.375E-03 alpha_mix =  0.700 |ddv_scf|^2 =  3.451E-03

      iter #   3 total cpu time :     6.3 secs   av.it.:  12.3
      thresh= 5.874E-03 alpha_mix =  0.700 |ddv_scf|^2 =  6.000E-06

      iter #   4 total cpu time :     6.5 secs   av.it.:  13.0
      thresh= 2.449E-04 alpha_mix =  0.700 |ddv_scf|^2 =  3.805E-06

      iter #   5 total cpu time :     6.7 secs   av.it.:  12.8
      thresh= 1.951E-04 alpha_mix =  0.700 |ddv_scf|^2 =  1.004E-06

      iter #   6 total cpu time :     6.9 secs   av.it.:  12.8
      thresh= 1.002E-04 alpha_mix =  0.700 |ddv_scf|^2 =  7.595E-07

      iter #   7 total cpu time :     7.1 secs   av.it.:  14.3
      thresh= 8.715E-05 alpha_mix =  0.700 |ddv_scf|^2 =  6.945E-07

      iter #   8 total cpu time :     7.3 secs   av.it.:  13.8
      thresh= 8.333E-05 alpha_mix =  0.700 |ddv_scf|^2 =  5.113E-07

      iter #   9 total cpu time :     7.5 secs   av.it.:  13.3
      thresh= 7.150E-05 alpha_mix =  0.700 |ddv_scf|^2 =  4.710E-07

      iter #  10 total cpu time :     7.7 secs   av.it.:  14.4
      thresh= 6.863E-05 alpha_mix =  0.700 |ddv_scf|^2 =  1.102E-07

      iter #  11 total cpu time :     7.9 secs   av.it.:  13.5
      thresh= 3.320E-05 alpha_mix =  0.700 |ddv_scf|^2 =  1.344E-07

      iter #  12 total cpu time :     8.1 secs   av.it.:  14.8
      thresh= 3.666E-05 alpha_mix =  0.700 |ddv_scf|^2 =  2.876E-08

      iter #  13 total cpu time :     8.3 secs   av.it.:  14.3
      thresh= 1.696E-05 alpha_mix =  0.700 |ddv_scf|^2 =  5.767E-09

      iter #  14 total cpu time :     8.5 secs   av.it.:  14.8
      thresh= 7.594E-06 alpha_mix =  0.700 |ddv_scf|^2 =  8.184E-11

      iter #  15 total cpu time :     8.7 secs   av.it.:  14.8
      thresh= 9.046E-07 alpha_mix =  0.700 |ddv_scf|^2 =  1.116E-11

      iter #  16 total cpu time :     8.9 secs   av.it.:  14.3
      thresh= 3.341E-07 alpha_mix =  0.700 |ddv_scf|^2 =  2.897E-12

      iter #  17 total cpu time :     9.1 secs   av.it.:  14.8
      thresh= 1.702E-07 alpha_mix =  0.700 |ddv_scf|^2 =  3.270E-12

      iter #  18 total cpu time :     9.3 secs   av.it.:  14.7
      thresh= 1.808E-07 alpha_mix =  0.700 |ddv_scf|^2 =  3.342E-13

     End of self-consistent calculation

     Convergence has been achieved 


     Representation #  3 mode #   3

     Self-consistent Calculation

      iter #   1 total cpu time :     9.5 secs   av.it.:  11.4
      thresh= 1.000E-02 alpha_mix =  0.700 |ddv_scf|^2 =  2.912E-04

      iter #   2 total cpu time :     9.7 secs   av.it.:  13.8
      thresh= 1.707E-03 alpha_mix =  0.700 |ddv_scf|^2 =  5.371E-03

      iter #   3 total cpu time :     9.8 secs   av.it.:  12.3
      thresh= 7.329E-03 alpha_mix =  0.700 |ddv_scf|^2 =  1.749E-05

      iter #   4 total cpu time :    10.0 secs   av.it.:  13.2
      thresh= 4.182E-04 alpha_mix =  0.700 |ddv_scf|^2 =  2.355E-05

      iter #   5 total cpu time :    10.2 secs   av.it.:  12.1
      thresh= 4.853E-04 alpha_mix =  0.700 |ddv_scf|^2 =  9.965E-06

      iter #   6 total cpu time :    10.4 secs   av.it.:  13.8
      thresh= 3.157E-04 alpha_mix =  0.700 |ddv_scf|^2 =  7.242E-06

      iter #   7 total cpu time :    10.6 secs   av.it.:  14.2
      thresh= 2.691E-04 alpha_mix =  0.700 |ddv_scf|^2 =  5.547E-06

      iter #   8 total cpu time :    10.8 secs   av.it.:  15.2
      thresh= 2.355E-04 alpha_mix =  0.700 |ddv_scf|^2 =  1.573E-05

      iter #   9 total cpu time :    11.0 secs   av.it.:  14.4
      thresh= 3.966E-04 alpha_mix =  0.700 |ddv_scf|^2 =  3.566E-06

      iter #  10 total cpu time :    11.2 secs   av.it.:  14.9
      thresh= 1.888E-04 alpha_mix =  0.700 |ddv_scf|^2 =  8.966E-06

      iter #  11 total cpu time :    11.4 secs   av.it.:  14.7
      thresh= 2.994E-04 alpha_mix =  0.700 |ddv_scf|^2 =  1.969E-06

      iter #  12 total cpu time :    11.6 secs   av.it.:  14.4
      thresh= 1.403E-04 alpha_mix =  0.700 |ddv_scf|^2 =  2.914E-07

      iter #  13 total cpu time :    11.8 secs   av.it.:  14.3
      thresh= 5.398E-05 alpha_mix =  0.700 |ddv_scf|^2 =  1.869E-08

      iter #  14 total cpu time :    12.0 secs   av.it.:  14.7
      thresh= 1.367E-05 alpha_mix =  0.700 |ddv_scf|^2 =  2.931E-10

      iter #  15 total cpu time :    12.2 secs   av.it.:  14.7
      thresh= 1.712E-06 alpha_mix =  0.700 |ddv_scf|^2 =  8.157E-11

      iter #  16 total cpu time :    12.4 secs   av.it.:  14.7
      thresh= 9.031E-07 alpha_mix =  0.700 |ddv_scf|^2 =  1.916E-12

      iter #  17 total cpu time :    12.6 secs   av.it.:  14.2
      thresh= 1.384E-07 alpha_mix =  0.700 |ddv_scf|^2 =  1.077E-12

      iter #  18 total cpu time :    12.8 secs   av.it.:  14.3
      thresh= 1.038E-07 alpha_mix =  0.700 |ddv_scf|^2 =  8.238E-14

     End of self-consistent calculation

     Convergence has been achieved 


     Representation #  4 mode #   4

     Self-consistent Calculation

      iter #   1 total cpu time :    12.9 secs   av.it.:  10.4
      thresh= 1.000E-02 alpha_mix =  0.700 |ddv_scf|^2 =  6.511E-05

      iter #   2 total cpu time :    13.1 secs   av.it.:  14.0
      thresh= 8.069E-04 alpha_mix =  0.700 |ddv_scf|^2 =  9.178E-04

      iter #   3 total cpu time :    13.3 secs   av.it.:  12.4
      thresh= 3.030E-03 alpha_mix =  0.700 |ddv_scf|^2 =  1.331E-05

      iter #   4 total cpu time :    13.5 secs   av.it.:  12.2
      thresh= 3.648E-04 alpha_mix =  0.700 |ddv_scf|^2 =  9.856E-06

      iter #   5 total cpu time :    13.7 secs   av.it.:  11.9
      thresh= 3.139E-04 alpha_mix =  0.700 |ddv_scf|^2 =  6.565E-06

      iter #   6 total cpu time :    13.9 secs   av.it.:  14.0
      thresh= 2.562E-04 alpha_mix =  0.700 |ddv_scf|^2 =  4.487E-06

      iter #   7 total cpu time :    14.1 secs   av.it.:  14.1
      thresh= 2.118E-04 alpha_mix =  0.700 |ddv_scf|^2 =  3.676E-06

      iter #   8 total cpu time :    14.3 secs   av.it.:  14.2
      thresh= 1.917E-04 alpha_mix =  0.700 |ddv_scf|^2 =  2.449E-06

      iter #   9 total cpu time :    14.6 secs   av.it.:  14.8
      thresh= 1.565E-04 alpha_mix =  0.700 |ddv_scf|^2 =  2.111E-06

      iter #  10 total cpu time :    14.8 secs   av.it.:  14.7
      thresh= 1.453E-04 alpha_mix =  0.700 |ddv_scf|^2 =  2.392E-07

      iter #  11 total cpu time :    15.0 secs   av.it.:  14.9
      thresh= 4.891E-05 alpha_mix =  0.700 |ddv_scf|^2 =  3.692E-08

      iter #  12 total cpu time :    15.2 secs   av.it.:  14.7
      thresh= 1.922E-05 alpha_mix =  0.700 |ddv_scf|^2 =  7.788E-09

      iter #  13 total cpu time :    15.4 secs   av.it.:  14.8
      thresh= 8.825E-06 alpha_mix =  0.700 |ddv_scf|^2 =  6.309E-10

      iter #  14 total cpu time :    15.6 secs   av.it.:  14.3
      thresh= 2.512E-06 alpha_mix =  0.700 |ddv_scf|^2 =  3.140E-10

      iter #  15 total cpu time :    15.8 secs   av.it.:  14.3
      thresh= 1.772E-06 alpha_mix =  0.700 |ddv_scf|^2 =  3.721E-12

      iter #  16 total cpu time :    16.0 secs   av.it.:  14.7
      thresh= 1.929E-07 alpha_mix =  0.700 |ddv_scf|^2 =  8.891E-13

     End of self-consistent calculation

     Convergence has been achieved 
 
     Number of q in the star =   12
     List of q in the star:
          1   0.750000000  -0.250000000   0.750000000
          2  -0.750000000  -0.250000000  -0.750000000
          3   0.250000000  -0.750000000   0.750000000
          4  -0.750000000   0.250000000   0.750000000
          5   0.750000000   0.250000000  -0.750000000
          6   0.750000000   0.750000000  -0.250000000
          7  -0.750000000  -0.750000000  -0.250000000
          8  -0.750000000   0.750000000   0.250000000
          9  -0.250000000   0.750000000   0.750000000
         10   0.250000000   0.750000000  -0.750000000
         11  -0.250000000  -0.750000000  -0.750000000
         12   0.750000000  -0.750000000   0.250000000
     In addition there is the -q list: 
          1  -0.750000000   0.250000000  -0.750000000
          2   0.750000000   0.250000000   0.750000000
          3  -0.250000000   0.750000000  -0.750000000
          4   0.750000000  -0.250000000  -0.750000000
          5  -0.750000000  -0.250000000   0.750000000
          6  -0.750000000  -0.750000000   0.250000000
          7   0.750000000   0.750000000   0.250000000
          8   0.750000000  -0.750000000  -0.250000000
          9   0.250000000  -0.750000000  -0.750000000
         10  -0.250000000  -0.750000000   0.750000000
         11   0.250000000   0.750000000   0.750000000
         12  -0.750000000   0.750000000  -0.250000000

     Diagonalizing the dynamical matrix

     q = (    0.750000000  -0.250000000   0.750000000 ) 

 **************************************************************************
     freq (    1) =     -22.449441 [THz] =    -748.832752 [cm-1]
     freq (    2) =     -20.795343 [THz] =    -693.657963 [cm-1]
     freq (    3) =     -14.982780 [THz] =    -499.771760 [cm-1]
     freq (    4) =       9.188387 [THz] =     306.491613 [cm-1]
     freq (    5) =      27.527906 [THz] =     918.232108 [cm-1]
     freq (    6) =      31.116303 [THz] =    1037.928130 [cm-1]
 **************************************************************************

     Mode symmetry, C_s (m)     point group:

     freq (  1 -  1) =       -748.8  [cm-1]   --> A'                 
     freq (  2 -  2) =       -693.7  [cm-1]   --> A'                 
     freq (  3 -  3) =       -499.8  [cm-1]   --> A'                 
     freq (  4 -  4) =        306.5  [cm-1]   --> A''                
     freq (  5 -  5) =        918.2  [cm-1]   --> A''                
     freq (  6 -  6) =       1037.9  [cm-1]   --> A'                 
 
     init_run     :      0.02s CPU      0.02s WALL (       1 calls)
     electrons    :      0.32s CPU      0.34s WALL (       1 calls)

     Called by init_run:
     wfcinit      :      0.00s CPU      0.00s WALL (       1 calls)
     potinit      :      0.00s CPU      0.00s WALL (       1 calls)

     Called by electrons:
     c_bands      :      0.32s CPU      0.34s WALL (       1 calls)
     v_of_rho     :      0.00s CPU      0.00s WALL (       3 calls)

     Called by c_bands:
     init_us_2    :      0.03s CPU      0.08s WALL (    1752 calls)
     cegterg      :      0.26s CPU      0.28s WALL (      40 calls)

     Called by sum_band:

     Called by *egterg:
     h_psi        :      9.66s CPU     10.09s WALL (   26931 calls)
     g_psi        :      0.00s CPU      0.00s WALL (     440 calls)
     cdiaghg      :      0.05s CPU      0.04s WALL (     480 calls)

     Called by h_psi:
     add_vuspsi   :      0.24s CPU      0.27s WALL (   26931 calls)

     General routines
     calbec       :      0.76s CPU      0.80s WALL (   54054 calls)
     fft          :      0.02s CPU      0.02s WALL (     256 calls)
     ffts         :      0.01s CPU      0.01s WALL (     146 calls)
     fftw         :      9.10s CPU      9.35s WALL (  197382 calls)
     davcio       :      0.06s CPU      0.13s WALL (    5450 calls)
 
     Parallel routines
     fft_scatter  :      2.39s CPU      2.47s WALL (  197784 calls)
 
     PHONON       :    15.03s CPU        16.01s WALL

     INITIALIZATION: 
     phq_setup    :      0.01s CPU      0.01s WALL (       2 calls)
     phq_init     :      0.05s CPU      0.05s WALL (       2 calls)
 
     phq_init     :      0.05s CPU      0.05s WALL (       2 calls)
     init_vloc    :      0.00s CPU      0.00s WALL (       3 calls)
     init_us_1    :      0.03s CPU      0.03s WALL (       3 calls)
 
     DYNAMICAL MATRIX:
     dynmat0      :      0.01s CPU      0.01s WALL (       1 calls)
     phqscf       :     13.67s CPU     14.62s WALL (       2 calls)
     dynmatrix    :      0.00s CPU      0.01s WALL (       2 calls)
 
     phqscf       :     13.67s CPU     14.62s WALL (       2 calls)
     solve_linter :     13.64s CPU     14.58s WALL (       7 calls)
     drhodv       :      0.02s CPU      0.02s WALL (       7 calls)
 
     dynmat0      :      0.01s CPU      0.01s WALL (       1 calls)
     dynmat_us    :      0.01s CPU      0.01s WALL (       1 calls)
     d2ionq       :      0.00s CPU      0.00s WALL (       1 calls)
 
     dynmat_us    :      0.01s CPU      0.01s WALL (       1 calls)
 
     phqscf       :     13.67s CPU     14.62s WALL (       2 calls)
     solve_linter :     13.64s CPU     14.58s WALL (       7 calls)
 
     solve_linter :     13.64s CPU     14.58s WALL (       7 calls)
     dvqpsi_us    :      0.05s CPU      0.06s WALL (     104 calls)
     ortho        :      0.04s CPU      0.05s WALL (    1544 calls)
     cgsolve      :     10.86s CPU     11.37s WALL (    1544 calls)
     incdrhoscf   :      0.73s CPU      0.77s WALL (    1544 calls)
     vpsifft      :      0.57s CPU      0.65s WALL (    1440 calls)
     dv_of_drho   :      0.01s CPU      0.02s WALL (      82 calls)
     mix_pot      :      0.05s CPU      0.05s WALL (      82 calls)
     psymdvscf    :      0.11s CPU      0.11s WALL (      82 calls)
 
     dvqpsi_us    :      0.05s CPU      0.06s WALL (     104 calls)
     dvqpsi_us_on :      0.00s CPU      0.00s WALL (     104 calls)
 
     cgsolve      :     10.86s CPU     11.37s WALL (    1544 calls)
     ch_psi       :     10.40s CPU     10.91s WALL (   26411 calls)
 
     ch_psi       :     10.40s CPU     10.91s WALL (   26411 calls)
     last         :      0.78s CPU      0.84s WALL (   26411 calls)
 
     add_vuspsi   :      0.24s CPU      0.27s WALL (   26931 calls)
 
     incdrhoscf   :      0.73s CPU      0.77s WALL (    1544 calls)
 
 
      General routines
     calbec       :      0.76s CPU      0.80s WALL (   54054 calls)
     fft          :      0.02s CPU      0.02s WALL (     256 calls)
     ffts         :      0.01s CPU      0.01s WALL (     146 calls)
     fftw         :      9.10s CPU      9.35s WALL (  197382 calls)
     davcio       :      0.06s CPU      0.13s WALL (    5450 calls)
     write_rec    :      0.13s CPU      0.13s WALL (      89 calls)
 
 
     PHONON       :    15.03s CPU        16.01s WALL

 
   This run was terminated on:  11:21: 4   3Aug2016            

=------------------------------------------------------------------------------=
   JOB DONE.
=------------------------------------------------------------------------------=
