
     Program PHONON v.6.beta (svn rev. 12834M) starts on 25Aug2016 at 11:41:54 

     This program is part of the open-source Quantum ESPRESSO suite
     for quantum simulation of materials; please cite
         "P. Giannozzi et al., J. Phys.:Condens. Matter 21 395502 (2009);
          URL http://www.quantum-espresso.org", 
     in publications or presentations arising from this work. More details at
     http://www.quantum-espresso.org/quote
 
           HOST :    x86_64-pc-linux-gnu
           ARCH :    x86_64
             CC :    icc
            CPP :    cpp
            F90 :    ifort
            F77 :    ifort
         DFLAGS :    -D__INTEL -D__FFTW -D__MPI -D__PARA -D__HDF5
      BLAS LIBS :    -lmkl_intel_lp64  -lmkl_sequential -lmkl_core
    LAPACK LIBS :    
       FFT LIBS :    
      MASS LIBS :    

     Parallel version (MPI), running on     4 processors
     path-images division:  nimage    =       2
     R & G space division:  proc/nbgrp/npool/nimage =       2

     Reading data from directory:
     /home/nvarini/espresso_hdf5/espresso/tempdir/_ph0/alas.save

   Info: using nr1, nr2, nr3 values from input

   Info: using nr1, nr2, nr3 values from input

     IMPORTANT: XC functional enforced from input :
     Exchange-correlation      =  SLA  PZ   NOGX NOGC ( 1  1  0  0 0 0)
     Any further DFT definition will be discarded
     Please, verify this is what you really want

 
     Parallelization info
     --------------------
     sticks:   dense  smooth     PW     G-vecs:    dense   smooth      PW
     Min         120     120     42                 1221     1221     264
     Max         121     121     43                 1224     1224     267
     Sum         241     241     85                 2445     2445     531
 

      Image parallelization. There are  2 images and    38 representations
      The estimated total work is   336 self-consistent (scf) runs
      I am image number     0 and my work is about  165 scf runs. I calculate: 
      q point number     1, representations:
       0 1 2
      q point number     2, representations:
       0 1 2 3 4
      q point number     3, representations:
       0 1 2 3 4
      q point number     4, representations:
       0 1 2 3 4 5 6
      q point number     5, representations:
       0 1 2 3 4
        5 /   8 q-points for this run, from  4 to  8:
       N       xq(1)         xq(2)         xq(3) 
       1   0.000000000   0.000000000   0.000000000
       2  -0.250000000   0.250000000  -0.250000000
       3   0.500000000  -0.500000000   0.500000000
       4   0.000000000   0.500000000   0.000000000
       5   0.750000000  -0.250000000   0.750000000
       6   0.500000000   0.000000000   0.500000000
       7   0.000000000  -1.000000000   0.000000000
       8  -0.500000000  -1.000000000   0.000000000
 

     Calculation of q =    0.0000000   0.5000000   0.0000000

     Bands found: reading from /home/nvarini/espresso_hdf5/espresso/tempdir/_ph0/

     Reading data from directory:
     /home/nvarini/espresso_hdf5/espresso/tempdir/_ph0/alas.save

   Info: using nr1, nr2, nr3 values from input

   Info: using nr1, nr2, nr3 values from input

     IMPORTANT: XC functional enforced from input :
     Exchange-correlation      =  SLA  PZ   NOGX NOGC ( 1  1  0  0 0 0)
     Any further DFT definition will be discarded
     Please, verify this is what you really want

 
     Parallelization info
     --------------------
     sticks:   dense  smooth     PW     G-vecs:    dense   smooth      PW
     Min         120     120     42                 1221     1221     264
     Max         121     121     43                 1224     1224     267
     Sum         241     241     85                 2445     2445     531
 

     Restart in Phonon calculation

                                                                                

     bravais-lattice index     =            2
     lattice parameter (alat)  =      10.5000  a.u.
     unit-cell volume          =     289.4062 (a.u.)^3
     number of atoms/cell      =            2
     number of atomic types    =            2
     kinetic-energy cut-off    =      16.0000  Ry
     charge density cut-off    =      64.0000  Ry
     convergence threshold     =      1.0E-12
     beta                      =       0.7000
     number of iterations used =            4
     Exchange-correlation      =  SLA  PZ   NOGX NOGC ( 1  1  0  0 0 0)


     celldm(1)=   10.50000  celldm(2)=    0.00000  celldm(3)=    0.00000
     celldm(4)=    0.00000  celldm(5)=    0.00000  celldm(6)=    0.00000

     crystal axes: (cart. coord. in units of alat)
               a(1) = ( -0.5000  0.0000  0.5000 )  
               a(2) = (  0.0000  0.5000  0.5000 )  
               a(3) = ( -0.5000  0.5000  0.0000 )  

     reciprocal axes: (cart. coord. in units 2 pi/alat)
               b(1) = ( -1.0000 -1.0000  1.0000 )  
               b(2) = (  1.0000  1.0000  1.0000 )  
               b(3) = ( -1.0000  1.0000 -1.0000 )  


     Atoms inside the unit cell: 

     Cartesian axes

     site n.  atom      mass           positions (alat units)
        1     Al  26.9800   tau(    1) = (    0.00000    0.00000    0.00000  )
        2     As  74.9200   tau(    2) = (    0.25000    0.25000    0.25000  )

     Computing dynamical matrix for 
                    q = (   0.0000000   0.5000000   0.0000000 )
 
      4 Sym.Ops. (no q -> -q+G )


     G cutoff =  178.7306  (   1224 G-vectors)     FFT grid: ( 20, 20, 20)
     number of k points=    24

     PseudoPot. # 1 for Al read from file:
     /home/nvarini/espresso_hdf5/espresso/pseudo/Al.pz-vbc.UPF
     MD5 check sum: 614279c88ff8d45c90147292d03ed420
     Pseudo is Norm-conserving, Zval =  3.0
     Generated by new atomic code, or converted to UPF format
     Using radial grid of  171 points,  2 beta functions with: 
                l(1) =   0
                l(2) =   1

     PseudoPot. # 2 for As read from file:
     /home/nvarini/espresso_hdf5/espresso/pseudo/As.pz-bhs.UPF
     MD5 check sum: 451cd3365afcfc94d28b1934951c34a8
     Pseudo is Norm-conserving, Zval =  5.0
     Generated by new atomic code, or converted to UPF format
     Using radial grid of  525 points,  2 beta functions with: 
                l(1) =   0
                l(2) =   1

     Mode symmetry, C_2v (mm2)  point group:


     Atomic displacements:
     There are   6 irreducible representations

     Representation     1      1 modes -A_1  D_1  S_1  Done

     Representation     2      1 modes -A_1  D_1  S_1  Done

     Representation     3      1 modes -B_1  D_3  S_3  Done

     Representation     4      1 modes -B_1  D_3  S_3  To be done

     Representation     5      1 modes -B_2  D_4  S_4  To be done

     Representation     6      1 modes -B_2  D_4  S_4  To be done


     PHONON       :     0.87s CPU         0.89s WALL



     Representation #  4 mode #   4

     Self-consistent Calculation

      iter #   2 total cpu time :     1.0 secs   av.it.:   8.3
      thresh= 2.961E-04 alpha_mix =  0.700 |ddv_scf|^2 =  1.180E-06

      iter #   3 total cpu time :     1.0 secs   av.it.:   8.1
      thresh= 1.086E-04 alpha_mix =  0.700 |ddv_scf|^2 =  3.847E-10

      iter #   4 total cpu time :     1.1 secs   av.it.:   8.0
      thresh= 1.961E-06 alpha_mix =  0.700 |ddv_scf|^2 =  1.532E-11

      iter #   5 total cpu time :     1.2 secs   av.it.:   8.2
      thresh= 3.914E-07 alpha_mix =  0.700 |ddv_scf|^2 =  6.698E-14

     End of self-consistent calculation

     Convergence has been achieved 


     Representation #  5 mode #   5

     Self-consistent Calculation

      iter #   1 total cpu time :     1.3 secs   av.it.:   5.8
      thresh= 1.000E-02 alpha_mix =  0.700 |ddv_scf|^2 =  8.766E-06

      iter #   2 total cpu time :     1.3 secs   av.it.:   8.4
      thresh= 2.961E-04 alpha_mix =  0.700 |ddv_scf|^2 =  1.179E-06

      iter #   3 total cpu time :     1.4 secs   av.it.:   8.2
      thresh= 1.086E-04 alpha_mix =  0.700 |ddv_scf|^2 =  3.852E-10

      iter #   4 total cpu time :     1.5 secs   av.it.:   8.0
      thresh= 1.963E-06 alpha_mix =  0.700 |ddv_scf|^2 =  1.527E-11

      iter #   5 total cpu time :     1.6 secs   av.it.:   8.2
      thresh= 3.907E-07 alpha_mix =  0.700 |ddv_scf|^2 =  6.639E-14

     End of self-consistent calculation

     Convergence has been achieved 


     Representation #  6 mode #   6

     Self-consistent Calculation

      iter #   1 total cpu time :     1.6 secs   av.it.:   4.9
      thresh= 1.000E-02 alpha_mix =  0.700 |ddv_scf|^2 =  1.095E-06

      iter #   2 total cpu time :     1.7 secs   av.it.:   8.4
      thresh= 1.046E-04 alpha_mix =  0.700 |ddv_scf|^2 =  1.261E-07

      iter #   3 total cpu time :     1.8 secs   av.it.:   8.3
      thresh= 3.552E-05 alpha_mix =  0.700 |ddv_scf|^2 =  6.607E-10

      iter #   4 total cpu time :     1.9 secs   av.it.:   7.9
      thresh= 2.570E-06 alpha_mix =  0.700 |ddv_scf|^2 =  2.114E-11

      iter #   5 total cpu time :     1.9 secs   av.it.:   7.8
      thresh= 4.598E-07 alpha_mix =  0.700 |ddv_scf|^2 =  3.787E-15

     End of self-consistent calculation

     Convergence has been achieved 
 
     Number of q in the star =    6
     List of q in the star:
          1   0.000000000   0.500000000   0.000000000
          2  -0.500000000   0.000000000   0.000000000
          3   0.000000000  -0.500000000   0.000000000
          4   0.000000000   0.000000000   0.500000000
          5   0.000000000   0.000000000  -0.500000000
          6   0.500000000   0.000000000   0.000000000

     Diagonalizing the dynamical matrix

     q = (    0.000000000   0.500000000   0.000000000 ) 

 **************************************************************************
     freq (    1) =       2.421100 [THz] =      80.759207 [cm-1]
     freq (    2) =       2.421100 [THz] =      80.759207 [cm-1]
     freq (    3) =       4.606416 [THz] =     153.653486 [cm-1]
     freq (    4) =      10.666714 [THz] =     355.803293 [cm-1]
     freq (    5) =      10.666714 [THz] =     355.803293 [cm-1]
     freq (    6) =      12.371373 [THz] =     412.664575 [cm-1]
 **************************************************************************

     Mode symmetry, C_2v (mm2)  point group:

     freq (  1 -  1) =         80.8  [cm-1]   --> B_1  D_3  S_3      
     freq (  2 -  2) =         80.8  [cm-1]   --> B_2  D_4  S_4      
     freq (  3 -  3) =        153.7  [cm-1]   --> A_1  D_1  S_1      
     freq (  4 -  4) =        355.8  [cm-1]   --> B_1  D_3  S_3      
     freq (  5 -  5) =        355.8  [cm-1]   --> B_2  D_4  S_4      
     freq (  6 -  6) =        412.7  [cm-1]   --> A_1  D_1  S_1      

     Calculation of q =    0.7500000  -0.2500000   0.7500000
 
     Parallelization info
     --------------------
     sticks:   dense  smooth     PW     G-vecs:    dense   smooth      PW
     Min         120     120     48                 1221     1221     322
     Max         121     121     49                 1224     1224     323
     Sum         241     241     97                 2445     2445     645
 


     bravais-lattice index     =            2
     lattice parameter (alat)  =      10.5000  a.u.
     unit-cell volume          =     289.4062 (a.u.)^3
     number of atoms/cell      =            2
     number of atomic types    =            2
     number of electrons       =         8.00
     number of Kohn-Sham states=            4
     kinetic-energy cutoff     =      16.0000  Ry
     charge density cutoff     =      64.0000  Ry
     Exchange-correlation      =  SLA  PZ   NOGX NOGC ( 1  1  0  0 0 0)

     celldm(1)=  10.500000  celldm(2)=   0.000000  celldm(3)=   0.000000
     celldm(4)=   0.000000  celldm(5)=   0.000000  celldm(6)=   0.000000

     crystal axes: (cart. coord. in units of alat)
               a(1) = (  -0.500000   0.000000   0.500000 )  
               a(2) = (   0.000000   0.500000   0.500000 )  
               a(3) = (  -0.500000   0.500000   0.000000 )  

     reciprocal axes: (cart. coord. in units 2 pi/alat)
               b(1) = ( -1.000000 -1.000000  1.000000 )  
               b(2) = (  1.000000  1.000000  1.000000 )  
               b(3) = ( -1.000000  1.000000 -1.000000 )  


     PseudoPot. # 1 for Al read from file:
     /home/nvarini/espresso_hdf5/espresso/pseudo/Al.pz-vbc.UPF
     MD5 check sum: 614279c88ff8d45c90147292d03ed420
     Pseudo is Norm-conserving, Zval =  3.0
     Generated by new atomic code, or converted to UPF format
     Using radial grid of  171 points,  2 beta functions with: 
                l(1) =   0
                l(2) =   1

     PseudoPot. # 2 for As read from file:
     /home/nvarini/espresso_hdf5/espresso/pseudo/As.pz-bhs.UPF
     MD5 check sum: 451cd3365afcfc94d28b1934951c34a8
     Pseudo is Norm-conserving, Zval =  5.0
     Generated by new atomic code, or converted to UPF format
     Using radial grid of  525 points,  2 beta functions with: 
                l(1) =   0
                l(2) =   1

     atomic species   valence    mass     pseudopotential
        Al             3.00    26.98000     Al( 1.00)
        As             5.00    74.92000     As( 1.00)

     24 Sym. Ops. (no inversion) found



   Cartesian axes

     site n.     atom                  positions (alat units)
         1           Al  tau(   1) = (   0.0000000   0.0000000   0.0000000  )
         2           As  tau(   2) = (   0.2500000   0.2500000   0.2500000  )

     number of k points=    40
                       cart. coord. in units 2pi/alat
        k(    1) = (   0.2500000   0.2500000   0.2500000), wk =   0.0625000
        k(    2) = (   1.0000000   0.0000000   1.0000000), wk =   0.0000000
        k(    3) = (   0.2500000   0.2500000   0.7500000), wk =   0.1250000
        k(    4) = (   1.0000000   0.0000000   1.5000000), wk =   0.0000000
        k(    5) = (  -0.2500000   0.2500000  -0.2500000), wk =   0.0625000
        k(    6) = (   0.5000000   0.0000000   0.5000000), wk =   0.0000000
        k(    7) = (  -0.2500000  -0.2500000   0.2500000), wk =   0.1250000
        k(    8) = (   0.5000000  -0.5000000   1.0000000), wk =   0.0000000
        k(    9) = (  -0.2500000  -0.2500000  -0.2500000), wk =   0.0625000
        k(   10) = (   0.5000000  -0.5000000   0.5000000), wk =   0.0000000
        k(   11) = (   0.2500000   0.2500000  -0.2500000), wk =   0.1250000
        k(   12) = (   1.0000000   0.0000000   0.5000000), wk =   0.0000000
        k(   13) = (   0.2500000  -0.2500000   0.2500000), wk =   0.0625000
        k(   14) = (   1.0000000  -0.5000000   1.0000000), wk =   0.0000000
        k(   15) = (  -0.2500000   0.2500000  -0.7500000), wk =   0.1250000
        k(   16) = (   0.5000000   0.0000000   0.0000000), wk =   0.0000000
        k(   17) = (  -0.2500000  -0.2500000   0.7500000), wk =   0.1250000
        k(   18) = (   0.5000000  -0.5000000   1.5000000), wk =   0.0000000
        k(   19) = (  -0.2500000  -0.7500000   0.2500000), wk =   0.1250000
        k(   20) = (   0.5000000  -1.0000000   1.0000000), wk =   0.0000000
        k(   21) = (  -0.7500000  -0.2500000   0.2500000), wk =   0.1250000
        k(   22) = (   0.0000000  -0.5000000   1.0000000), wk =   0.0000000
        k(   23) = (  -0.2500000   0.7500000  -0.2500000), wk =   0.0625000
        k(   24) = (   0.5000000   0.5000000   0.5000000), wk =   0.0000000
        k(   25) = (   0.2500000   0.7500000   0.2500000), wk =   0.0625000
        k(   26) = (   1.0000000   0.5000000   1.0000000), wk =   0.0000000
        k(   27) = (  -0.2500000  -0.2500000  -0.7500000), wk =   0.1250000
        k(   28) = (   0.5000000  -0.5000000   0.0000000), wk =   0.0000000
        k(   29) = (   0.2500000   0.2500000  -0.7500000), wk =   0.1250000
        k(   30) = (   1.0000000   0.0000000   0.0000000), wk =   0.0000000
        k(   31) = (   0.2500000  -0.2500000   0.7500000), wk =   0.1250000
        k(   32) = (   1.0000000  -0.5000000   1.5000000), wk =   0.0000000
        k(   33) = (  -0.2500000   0.2500000   0.7500000), wk =   0.1250000
        k(   34) = (   0.5000000   0.0000000   1.5000000), wk =   0.0000000
        k(   35) = (  -0.2500000   0.7500000   0.2500000), wk =   0.1250000
        k(   36) = (   0.5000000   0.5000000   1.0000000), wk =   0.0000000
        k(   37) = (  -0.2500000  -0.7500000  -0.2500000), wk =   0.0625000
        k(   38) = (   0.5000000  -1.0000000   0.5000000), wk =   0.0000000
        k(   39) = (   0.2500000  -0.7500000   0.2500000), wk =   0.0625000
        k(   40) = (   1.0000000  -1.0000000   1.0000000), wk =   0.0000000

     Dense  grid:     2445 G-vectors     FFT dimensions: (  20,  20,  20)

     Estimated max dynamical RAM per process >       0.51Mb

     Estimated total allocated dynamical RAM >       1.02Mb

     The potential is recalculated from file :
     /home/nvarini/espresso_hdf5/espresso/tempdir/_ph0/alas.save/charge-density.hdf5

     Starting wfc are    8 atomic wfcs

     Band Structure Calculation
     Davidson diagonalization with overlap

     ethr =  1.25E-10,  avg # of iterations = 11.0

     total cpu time spent up to now is        1.9 secs

     End of band structure calculation

          k = 0.2500 0.2500 0.2500 (   311 PWs)   bands (ev):

    -6.3575   1.7035   4.6970   4.6970

          k = 1.0000 0.0000 1.0000 (   302 PWs)   bands (ev):

    -4.8217  -0.4470   2.9274   2.9274

          k = 0.2500 0.2500 0.7500 (   311 PWs)   bands (ev):

    -5.1819  -0.0415   2.3125   3.5086

          k = 1.0000 0.0000 1.5000 (   308 PWs)   bands (ev):

    -4.7852  -0.0517   1.7949   2.1910

          k =-0.2500 0.2500-0.2500 (   311 PWs)   bands (ev):

    -6.3575   1.7035   4.6970   4.6970

          k = 0.5000 0.0000 0.5000 (   315 PWs)   bands (ev):

    -5.5287   0.5005   2.1485   4.2663

          k =-0.2500-0.2500 0.2500 (   311 PWs)   bands (ev):

    -6.3575   1.7035   4.6970   4.6970

          k = 0.5000-0.5000 1.0000 (   315 PWs)   bands (ev):

    -5.5287   0.5005   2.1485   4.2663

          k =-0.2500-0.2500-0.2500 (   311 PWs)   bands (ev):

    -6.3575   1.7035   4.6970   4.6970

          k = 0.5000-0.5000 0.5000 (   302 PWs)   bands (ev):

    -5.4218  -0.6403   4.3483   4.3483

          k = 0.2500 0.2500-0.2500 (   311 PWs)   bands (ev):

    -6.3575   1.7035   4.6970   4.6970

          k = 1.0000 0.0000 0.5000 (   308 PWs)   bands (ev):

    -4.7852  -0.0517   1.7949   2.1910

          k = 0.2500-0.2500 0.2500 (   311 PWs)   bands (ev):

    -6.3575   1.7035   4.6970   4.6970

          k = 1.0000-0.5000 1.0000 (   311 PWs)   bands (ev):

    -6.1430   1.9396   3.7847   3.7847

          k =-0.2500 0.2500-0.7500 (   311 PWs)   bands (ev):

    -5.1819  -0.0415   2.3125   3.5086

          k = 0.5000 0.0000 0.0000 (   311 PWs)   bands (ev):

    -6.1430   1.9396   3.7847   3.7847

          k =-0.2500-0.2500 0.7500 (   311 PWs)   bands (ev):

    -5.1819  -0.0415   2.3125   3.5086

          k = 0.5000-0.5000 1.5000 (   302 PWs)   bands (ev):

    -5.4218  -0.6403   4.3483   4.3483

          k =-0.2500-0.7500 0.2500 (   311 PWs)   bands (ev):

    -5.1819  -0.0415   2.3125   3.5086

          k = 0.5000-1.0000 1.0000 (   311 PWs)   bands (ev):

    -6.1430   1.9396   3.7847   3.7847

          k =-0.7500-0.2500 0.2500 (   311 PWs)   bands (ev):

    -5.1819  -0.0415   2.3125   3.5086

          k = 0.0000-0.5000 1.0000 (   308 PWs)   bands (ev):

    -4.7852  -0.0517   1.7949   2.1910

          k =-0.2500 0.7500-0.2500 (   311 PWs)   bands (ev):

    -5.1819  -0.0415   2.3125   3.5086

          k = 0.5000 0.5000 0.5000 (   302 PWs)   bands (ev):

    -5.4218  -0.6403   4.3483   4.3483

          k = 0.2500 0.7500 0.2500 (   311 PWs)   bands (ev):

    -5.1819  -0.0415   2.3125   3.5086

          k = 1.0000 0.5000 1.0000 (   311 PWs)   bands (ev):

    -6.1430   1.9396   3.7847   3.7847

          k =-0.2500-0.2500-0.7500 (   311 PWs)   bands (ev):

    -5.1819  -0.0415   2.3125   3.5086

          k = 0.5000-0.5000 0.0000 (   315 PWs)   bands (ev):

    -5.5287   0.5005   2.1485   4.2663

          k = 0.2500 0.2500-0.7500 (   311 PWs)   bands (ev):

    -5.1819  -0.0415   2.3125   3.5086

          k = 1.0000 0.0000 0.0000 (   302 PWs)   bands (ev):

    -4.8217  -0.4470   2.9274   2.9274

          k = 0.2500-0.2500 0.7500 (   311 PWs)   bands (ev):

    -5.1819  -0.0415   2.3125   3.5086

          k = 1.0000-0.5000 1.5000 (   315 PWs)   bands (ev):

    -5.5287   0.5005   2.1485   4.2663

          k =-0.2500 0.2500 0.7500 (   311 PWs)   bands (ev):

    -5.1819  -0.0415   2.3125   3.5086

          k = 0.5000 0.0000 1.5000 (   315 PWs)   bands (ev):

    -5.5287   0.5005   2.1485   4.2663

          k =-0.2500 0.7500 0.2500 (   311 PWs)   bands (ev):

    -5.1819  -0.0415   2.3125   3.5086

          k = 0.5000 0.5000 1.0000 (   315 PWs)   bands (ev):

    -5.5287   0.5005   2.1485   4.2663

          k =-0.2500-0.7500-0.2500 (   311 PWs)   bands (ev):

    -5.1819  -0.0415   2.3125   3.5086

          k = 0.5000-1.0000 0.5000 (   315 PWs)   bands (ev):

    -5.5287   0.5005   2.1485   4.2663

          k = 0.2500-0.7500 0.2500 (   311 PWs)   bands (ev):

    -5.1819  -0.0415   2.3125   3.5086

          k = 1.0000-1.0000 1.0000 (   331 PWs)   bands (ev):

    -6.9797   5.1761   5.1761   5.1761

     highest occupied level (ev):     5.1761

     Writing output data file alas.save

                                                                                

     bravais-lattice index     =            2
     lattice parameter (alat)  =      10.5000  a.u.
     unit-cell volume          =     289.4062 (a.u.)^3
     number of atoms/cell      =            2
     number of atomic types    =            2
     kinetic-energy cut-off    =      16.0000  Ry
     charge density cut-off    =      64.0000  Ry
     convergence threshold     =      1.0E-12
     beta                      =       0.7000
     number of iterations used =            4
     Exchange-correlation      =  SLA  PZ   NOGX NOGC ( 1  1  0  0 0 0)


     celldm(1)=   10.50000  celldm(2)=    0.00000  celldm(3)=    0.00000
     celldm(4)=    0.00000  celldm(5)=    0.00000  celldm(6)=    0.00000

     crystal axes: (cart. coord. in units of alat)
               a(1) = ( -0.5000  0.0000  0.5000 )  
               a(2) = (  0.0000  0.5000  0.5000 )  
               a(3) = ( -0.5000  0.5000  0.0000 )  

     reciprocal axes: (cart. coord. in units 2 pi/alat)
               b(1) = ( -1.0000 -1.0000  1.0000 )  
               b(2) = (  1.0000  1.0000  1.0000 )  
               b(3) = ( -1.0000  1.0000 -1.0000 )  


     Atoms inside the unit cell: 

     Cartesian axes

     site n.  atom      mass           positions (alat units)
        1     Al  26.9800   tau(    1) = (    0.00000    0.00000    0.00000  )
        2     As  74.9200   tau(    2) = (    0.25000    0.25000    0.25000  )

     Computing dynamical matrix for 
                    q = (   0.7500000  -0.2500000   0.7500000 )
 
      2 Sym.Ops. (no q -> -q+G )


     G cutoff =  178.7306  (   1224 G-vectors)     FFT grid: ( 20, 20, 20)
     number of k points=    40

     PseudoPot. # 1 for Al read from file:
     /home/nvarini/espresso_hdf5/espresso/pseudo/Al.pz-vbc.UPF
     MD5 check sum: 614279c88ff8d45c90147292d03ed420
     Pseudo is Norm-conserving, Zval =  3.0
     Generated by new atomic code, or converted to UPF format
     Using radial grid of  171 points,  2 beta functions with: 
                l(1) =   0
                l(2) =   1

     PseudoPot. # 2 for As read from file:
     /home/nvarini/espresso_hdf5/espresso/pseudo/As.pz-bhs.UPF
     MD5 check sum: 451cd3365afcfc94d28b1934951c34a8
     Pseudo is Norm-conserving, Zval =  5.0
     Generated by new atomic code, or converted to UPF format
     Using radial grid of  525 points,  2 beta functions with: 
                l(1) =   0
                l(2) =   1

     Mode symmetry, C_s (m)     point group:


     Atomic displacements:
     There are   6 irreducible representations

     Representation     1      1 modes -A'  To be done

     Representation     2      1 modes -A'  To be done

     Representation     3      1 modes -A'  To be done

     Representation     4      1 modes -A'  To be done

     Representation     5      1 modes -A''  Done

     Representation     6      1 modes -A''  Done

     Compute atoms:     1,    2,



     Alpha used in Ewald sum =   0.7000
     PHONON       :     2.37s CPU         2.47s WALL



     Representation #  1 mode #   1

     Self-consistent Calculation

      iter #   1 total cpu time :     2.7 secs   av.it.:  16.2
      thresh= 1.000E-02 alpha_mix =  0.700 |ddv_scf|^2 =  4.747E-05

      iter #   2 total cpu time :     2.9 secs   av.it.:  20.0
      thresh= 6.890E-04 alpha_mix =  0.700 |ddv_scf|^2 =  7.195E-05

      iter #   3 total cpu time :     3.2 secs   av.it.:  18.9
      thresh= 8.482E-04 alpha_mix =  0.700 |ddv_scf|^2 =  6.886E-05

      iter #   4 total cpu time :     3.4 secs   av.it.:  17.6
      thresh= 8.298E-04 alpha_mix =  0.700 |ddv_scf|^2 =  4.327E-07

      iter #   5 total cpu time :     3.7 secs   av.it.:  18.6
      thresh= 6.578E-05 alpha_mix =  0.700 |ddv_scf|^2 =  7.090E-07

      iter #   6 total cpu time :     3.9 secs   av.it.:  17.6
      thresh= 8.420E-05 alpha_mix =  0.700 |ddv_scf|^2 =  1.823E-09

      iter #   7 total cpu time :     4.2 secs   av.it.:  18.9
      thresh= 4.270E-06 alpha_mix =  0.700 |ddv_scf|^2 =  1.377E-10

      iter #   8 total cpu time :     4.4 secs   av.it.:  19.0
      thresh= 1.173E-06 alpha_mix =  0.700 |ddv_scf|^2 =  6.644E-11

      iter #   9 total cpu time :     4.7 secs   av.it.:  18.8
      thresh= 8.151E-07 alpha_mix =  0.700 |ddv_scf|^2 =  6.167E-12

      iter #  10 total cpu time :     4.9 secs   av.it.:  19.0
      thresh= 2.483E-07 alpha_mix =  0.700 |ddv_scf|^2 =  2.946E-12

      iter #  11 total cpu time :     5.2 secs   av.it.:  18.9
      thresh= 1.716E-07 alpha_mix =  0.700 |ddv_scf|^2 =  2.891E-12

      iter #  12 total cpu time :     5.4 secs   av.it.:  18.1
      thresh= 1.700E-07 alpha_mix =  0.700 |ddv_scf|^2 =  5.576E-13

     End of self-consistent calculation

     Convergence has been achieved 


     Representation #  2 mode #   2

     Self-consistent Calculation

      iter #   1 total cpu time :     5.6 secs   av.it.:  15.4
      thresh= 1.000E-02 alpha_mix =  0.700 |ddv_scf|^2 =  2.290E-04

      iter #   2 total cpu time :     5.9 secs   av.it.:  20.0
      thresh= 1.513E-03 alpha_mix =  0.700 |ddv_scf|^2 =  5.758E-03

      iter #   3 total cpu time :     6.1 secs   av.it.:  17.4
      thresh= 7.588E-03 alpha_mix =  0.700 |ddv_scf|^2 =  1.920E-05

      iter #   4 total cpu time :     6.4 secs   av.it.:  18.4
      thresh= 4.382E-04 alpha_mix =  0.700 |ddv_scf|^2 =  1.057E-05

      iter #   5 total cpu time :     6.6 secs   av.it.:  17.9
      thresh= 3.251E-04 alpha_mix =  0.700 |ddv_scf|^2 =  1.420E-07

      iter #   6 total cpu time :     6.8 secs   av.it.:  18.6
      thresh= 3.769E-05 alpha_mix =  0.700 |ddv_scf|^2 =  1.343E-08

      iter #   7 total cpu time :     7.1 secs   av.it.:  18.4
      thresh= 1.159E-05 alpha_mix =  0.700 |ddv_scf|^2 =  1.641E-10

      iter #   8 total cpu time :     7.3 secs   av.it.:  18.6
      thresh= 1.281E-06 alpha_mix =  0.700 |ddv_scf|^2 =  3.457E-11

      iter #   9 total cpu time :     7.6 secs   av.it.:  19.2
      thresh= 5.880E-07 alpha_mix =  0.700 |ddv_scf|^2 =  1.224E-11

      iter #  10 total cpu time :     7.8 secs   av.it.:  19.1
      thresh= 3.498E-07 alpha_mix =  0.700 |ddv_scf|^2 =  1.240E-11

      iter #  11 total cpu time :     8.1 secs   av.it.:  18.2
      thresh= 3.521E-07 alpha_mix =  0.700 |ddv_scf|^2 =  4.142E-12

      iter #  12 total cpu time :     8.3 secs   av.it.:  18.4
      thresh= 2.035E-07 alpha_mix =  0.700 |ddv_scf|^2 =  1.748E-12

      iter #  13 total cpu time :     8.6 secs   av.it.:  18.1
      thresh= 1.322E-07 alpha_mix =  0.700 |ddv_scf|^2 =  6.874E-13

     End of self-consistent calculation

     Convergence has been achieved 


     Representation #  3 mode #   3

     Self-consistent Calculation

      iter #   1 total cpu time :     8.8 secs   av.it.:  16.4
      thresh= 1.000E-02 alpha_mix =  0.700 |ddv_scf|^2 =  2.148E-04

      iter #   2 total cpu time :     9.1 secs   av.it.:  19.9
      thresh= 1.466E-03 alpha_mix =  0.700 |ddv_scf|^2 =  3.406E-03

      iter #   3 total cpu time :     9.3 secs   av.it.:  17.8
      thresh= 5.836E-03 alpha_mix =  0.700 |ddv_scf|^2 =  1.233E-04

      iter #   4 total cpu time :     9.5 secs   av.it.:  18.2
      thresh= 1.111E-03 alpha_mix =  0.700 |ddv_scf|^2 =  2.303E-05

      iter #   5 total cpu time :     9.8 secs   av.it.:  17.9
      thresh= 4.799E-04 alpha_mix =  0.700 |ddv_scf|^2 =  6.059E-07

      iter #   6 total cpu time :    10.0 secs   av.it.:  18.2
      thresh= 7.784E-05 alpha_mix =  0.700 |ddv_scf|^2 =  1.132E-08

      iter #   7 total cpu time :    10.3 secs   av.it.:  18.8
      thresh= 1.064E-05 alpha_mix =  0.700 |ddv_scf|^2 =  1.471E-10

      iter #   8 total cpu time :    10.5 secs   av.it.:  19.5
      thresh= 1.213E-06 alpha_mix =  0.700 |ddv_scf|^2 =  2.191E-10

      iter #   9 total cpu time :    10.8 secs   av.it.:  18.2
      thresh= 1.480E-06 alpha_mix =  0.700 |ddv_scf|^2 =  2.531E-11

      iter #  10 total cpu time :    11.0 secs   av.it.:  18.4
      thresh= 5.031E-07 alpha_mix =  0.700 |ddv_scf|^2 =  3.811E-12

      iter #  11 total cpu time :    11.3 secs   av.it.:  19.1
      thresh= 1.952E-07 alpha_mix =  0.700 |ddv_scf|^2 =  1.969E-12

      iter #  12 total cpu time :    11.5 secs   av.it.:  18.4
      thresh= 1.403E-07 alpha_mix =  0.700 |ddv_scf|^2 =  1.066E-12

      iter #  13 total cpu time :    11.7 secs   av.it.:  18.2
      thresh= 1.033E-07 alpha_mix =  0.700 |ddv_scf|^2 =  1.058E-13

     End of self-consistent calculation

     Convergence has been achieved 


     Representation #  4 mode #   4

     Self-consistent Calculation

      iter #   1 total cpu time :    12.0 secs   av.it.:  15.2
      thresh= 1.000E-02 alpha_mix =  0.700 |ddv_scf|^2 =  6.925E-05

      iter #   2 total cpu time :    12.2 secs   av.it.:  20.1
      thresh= 8.322E-04 alpha_mix =  0.700 |ddv_scf|^2 =  1.740E-03

      iter #   3 total cpu time :    12.5 secs   av.it.:  17.4
      thresh= 4.172E-03 alpha_mix =  0.700 |ddv_scf|^2 =  7.177E-06

      iter #   4 total cpu time :    12.7 secs   av.it.:  18.4
      thresh= 2.679E-04 alpha_mix =  0.700 |ddv_scf|^2 =  6.016E-06

      iter #   5 total cpu time :    12.9 secs   av.it.:  17.7
      thresh= 2.453E-04 alpha_mix =  0.700 |ddv_scf|^2 =  1.757E-07

      iter #   6 total cpu time :    13.2 secs   av.it.:  18.2
      thresh= 4.192E-05 alpha_mix =  0.700 |ddv_scf|^2 =  4.336E-09

      iter #   7 total cpu time :    13.4 secs   av.it.:  18.9
      thresh= 6.585E-06 alpha_mix =  0.700 |ddv_scf|^2 =  1.145E-10

      iter #   8 total cpu time :    13.7 secs   av.it.:  18.9
      thresh= 1.070E-06 alpha_mix =  0.700 |ddv_scf|^2 =  1.842E-11

      iter #   9 total cpu time :    13.9 secs   av.it.:  19.4
      thresh= 4.291E-07 alpha_mix =  0.700 |ddv_scf|^2 =  9.581E-12

      iter #  10 total cpu time :    14.2 secs   av.it.:  18.9
      thresh= 3.095E-07 alpha_mix =  0.700 |ddv_scf|^2 =  7.251E-12

      iter #  11 total cpu time :    14.4 secs   av.it.:  18.4
      thresh= 2.693E-07 alpha_mix =  0.700 |ddv_scf|^2 =  2.525E-12

      iter #  12 total cpu time :    14.7 secs   av.it.:  18.3
      thresh= 1.589E-07 alpha_mix =  0.700 |ddv_scf|^2 =  2.135E-12

      iter #  13 total cpu time :    14.9 secs   av.it.:  17.9
      thresh= 1.461E-07 alpha_mix =  0.700 |ddv_scf|^2 =  8.266E-14

     End of self-consistent calculation

     Convergence has been achieved 
 
     Number of q in the star =   12
     List of q in the star:
          1   0.750000000  -0.250000000   0.750000000
          2  -0.750000000  -0.250000000  -0.750000000
          3   0.250000000  -0.750000000   0.750000000
          4  -0.750000000   0.250000000   0.750000000
          5   0.750000000   0.250000000  -0.750000000
          6   0.750000000   0.750000000  -0.250000000
          7  -0.750000000  -0.750000000  -0.250000000
          8  -0.750000000   0.750000000   0.250000000
          9  -0.250000000   0.750000000   0.750000000
         10   0.250000000   0.750000000  -0.750000000
         11  -0.250000000  -0.750000000  -0.750000000
         12   0.750000000  -0.750000000   0.250000000
     In addition there is the -q list: 
          1  -0.750000000   0.250000000  -0.750000000
          2   0.750000000   0.250000000   0.750000000
          3  -0.250000000   0.750000000  -0.750000000
          4   0.750000000  -0.250000000  -0.750000000
          5  -0.750000000  -0.250000000   0.750000000
          6  -0.750000000  -0.750000000   0.250000000
          7   0.750000000   0.750000000   0.250000000
          8   0.750000000  -0.750000000  -0.250000000
          9   0.250000000  -0.750000000  -0.750000000
         10  -0.250000000  -0.750000000   0.750000000
         11   0.250000000   0.750000000   0.750000000
         12  -0.750000000   0.750000000  -0.250000000

     Diagonalizing the dynamical matrix

     q = (    0.750000000  -0.250000000   0.750000000 ) 

 **************************************************************************
     freq (    1) =     -19.923963 [THz] =    -664.591873 [cm-1]
     freq (    2) =     -18.338517 [THz] =    -611.707092 [cm-1]
     freq (    3) =     -13.699744 [THz] =    -456.974277 [cm-1]
     freq (    4) =     -11.376061 [THz] =    -379.464534 [cm-1]
     freq (    5) =      10.111336 [THz] =     337.277881 [cm-1]
     freq (    6) =      27.773591 [THz] =     926.427273 [cm-1]
 **************************************************************************

     Mode symmetry, C_s (m)     point group:

     freq (  1 -  1) =       -664.6  [cm-1]   --> A'                 
     freq (  2 -  2) =       -611.7  [cm-1]   --> A'                 
     freq (  3 -  3) =       -457.0  [cm-1]   --> A'                 
     freq (  4 -  4) =       -379.5  [cm-1]   --> A'                 
     freq (  5 -  5) =        337.3  [cm-1]   --> A''                
     freq (  6 -  6) =        926.4  [cm-1]   --> A''                
 
     init_run     :      0.02s CPU      0.02s WALL (       1 calls)
     electrons    :      0.32s CPU      0.34s WALL (       1 calls)

     Called by init_run:
     wfcinit      :      0.00s CPU      0.00s WALL (       1 calls)
     potinit      :      0.00s CPU      0.00s WALL (       1 calls)

     Called by electrons:
     c_bands      :      0.32s CPU      0.34s WALL (       1 calls)
     v_of_rho     :      0.00s CPU      0.00s WALL (       3 calls)

     Called by c_bands:
     init_us_2    :      0.02s CPU      0.06s WALL (    1396 calls)
     cegterg      :      0.26s CPU      0.27s WALL (      40 calls)

     Called by sum_band:

     Called by *egterg:
     h_psi        :      9.35s CPU      9.75s WALL (   32696 calls)
     g_psi        :      0.00s CPU      0.00s WALL (     440 calls)
     cdiaghg      :      0.05s CPU      0.04s WALL (     480 calls)

     Called by h_psi:
     h_psi:pot    :      9.27s CPU      9.65s WALL (   32696 calls)
     h_psi:calbec :      0.55s CPU      0.56s WALL (   32696 calls)
     add_vuspsi   :      0.25s CPU      0.28s WALL (   32696 calls)

     General routines
     calbec       :      0.82s CPU      0.83s WALL (   65584 calls)
     fft          :      0.01s CPU      0.02s WALL (     205 calls)
     ffts         :      0.01s CPU      0.01s WALL (     146 calls)
     fftw         :      8.45s CPU      8.68s WALL (  186882 calls)
     davcio       :      0.04s CPU      0.06s WALL (    4168 calls)
 
     Parallel routines
     fft_scatter  :      2.14s CPU      2.20s WALL (  187233 calls)
 
     PHONON       :    14.18s CPU        14.93s WALL

     INITIALIZATION: 
     phq_setup    :      0.01s CPU      0.01s WALL (       2 calls)
     phq_init     :      0.05s CPU      0.05s WALL (       2 calls)
 
     phq_init     :      0.05s CPU      0.05s WALL (       2 calls)
     init_vloc    :      0.00s CPU      0.00s WALL (       3 calls)
     init_us_1    :      0.03s CPU      0.03s WALL (       3 calls)
 
     DYNAMICAL MATRIX:
     dynmat0      :      0.01s CPU      0.01s WALL (       1 calls)
     phqscf       :     12.82s CPU     13.52s WALL (       2 calls)
     dynmatrix    :      0.00s CPU      0.01s WALL (       2 calls)
 
     phqscf       :     12.82s CPU     13.52s WALL (       2 calls)
     solve_linter :     12.79s CPU     13.49s WALL (       7 calls)
     drhodv       :      0.02s CPU      0.02s WALL (       7 calls)
 
     dynmat0      :      0.01s CPU      0.01s WALL (       1 calls)
     dynmat_us    :      0.01s CPU      0.01s WALL (       1 calls)
     d2ionq       :      0.00s CPU      0.00s WALL (       1 calls)
 
     dynmat_us    :      0.01s CPU      0.01s WALL (       1 calls)
 
     phqscf       :     12.82s CPU     13.52s WALL (       2 calls)
     solve_linter :     12.79s CPU     13.49s WALL (       7 calls)
 
     solve_linter :     12.79s CPU     13.49s WALL (       7 calls)
     dvqpsi_us    :      0.06s CPU      0.06s WALL (     104 calls)
     ortho        :      0.03s CPU      0.04s WALL (    1188 calls)
     cgsolve      :     10.69s CPU     11.17s WALL (    1188 calls)
     incdrhoscf   :      0.56s CPU      0.58s WALL (    1188 calls)
     vpsifft      :      0.44s CPU      0.50s WALL (    1084 calls)
     dv_of_drho   :      0.01s CPU      0.01s WALL (      65 calls)
     mix_pot      :      0.03s CPU      0.04s WALL (      65 calls)
     psymdvscf    :      0.09s CPU      0.09s WALL (      65 calls)
 
     dvqpsi_us    :      0.06s CPU      0.06s WALL (     104 calls)
     dvqpsi_us_on :      0.00s CPU      0.00s WALL (     104 calls)
 
     cgsolve      :     10.69s CPU     11.17s WALL (    1188 calls)
     ch_psi       :     10.14s CPU     10.65s WALL (   32176 calls)
 
     ch_psi       :     10.14s CPU     10.65s WALL (   32176 calls)
     last         :      0.83s CPU      0.89s WALL (   32176 calls)
 
     add_vuspsi   :      0.25s CPU      0.28s WALL (   32696 calls)
 
     incdrhoscf   :      0.56s CPU      0.58s WALL (    1188 calls)
 
 
      General routines
     calbec       :      0.82s CPU      0.83s WALL (   65584 calls)
     fft          :      0.01s CPU      0.02s WALL (     205 calls)
     ffts         :      0.01s CPU      0.01s WALL (     146 calls)
     fftw         :      8.45s CPU      8.68s WALL (  186882 calls)
     davcio       :      0.04s CPU      0.06s WALL (    4168 calls)
     write_rec    :      0.09s CPU      0.11s WALL (      72 calls)
 
 
     PHONON       :    14.18s CPU        14.93s WALL

 
   This run was terminated on:  11:42: 9  25Aug2016            

=------------------------------------------------------------------------------=
   JOB DONE.
=------------------------------------------------------------------------------=
