
     Program PHONON v.5.4.0 (svn rev. 12828M) starts on 23Aug2016 at 16:16: 9 

     This program is part of the open-source Quantum ESPRESSO suite
     for quantum simulation of materials; please cite
         "P. Giannozzi et al., J. Phys.:Condens. Matter 21 395502 (2009);
          URL http://www.quantum-espresso.org", 
     in publications or presentations arising from this work. More details at
     http://www.quantum-espresso.org/quote
 
           HOST :    x86_64-pc-linux-gnu
           ARCH :    x86_64
             CC :    icc
            CPP :    cpp
            F90 :    ifort
            F77 :    ifort
         DFLAGS :    -D__INTEL -D__FFTW -D__MPI -D__PARA -D__HDF5
      BLAS LIBS :    -lmkl_intel_lp64  -lmkl_sequential -lmkl_core
    LAPACK LIBS :    
       FFT LIBS :    
      MASS LIBS :    

     Parallel version (MPI), running on     4 processors
     path-images division:  nimage    =       2
     R & G space division:  proc/nbgrp/npool/nimage =       2

     Reading data from directory:
     /home/nvarini/espresso_hdf5/espresso/tempdir/alas.save

   Info: using nr1, nr2, nr3 values from input

   Info: using nr1, nr2, nr3 values from input

     IMPORTANT: XC functional enforced from input :
     Exchange-correlation      =  SLA  PZ   NOGX NOGC ( 1  1  0  0 0 0)
     Any further DFT definition will be discarded
     Please, verify this is what you really want

 
     Parallelization info
     --------------------
     sticks:   dense  smooth     PW     G-vecs:    dense   smooth      PW
     Min         120     120     42                 1221     1221     229
     Max         121     121     43                 1224     1224     230
     Sum         241     241     85                 2445     2445     459
 


     Dynamical matrices for ( 4, 4, 4)  uniform grid of q-points
     (   8q-points):
       N         xq(1)         xq(2)         xq(3) 
       1   0.000000000   0.000000000   0.000000000
       2  -0.250000000   0.250000000  -0.250000000
       3   0.500000000  -0.500000000   0.500000000
       4   0.000000000   0.500000000   0.000000000
       5   0.750000000  -0.250000000   0.750000000
       6   0.500000000   0.000000000   0.500000000
       7   0.000000000  -1.000000000   0.000000000
       8  -0.500000000  -1.000000000   0.000000000

      Image parallelization. There are  2 images and    38 representations
      The estimated total work is   336 self-consistent (scf) runs
      I am image number     0 and my work is about  165 scf runs. I calculate: 
      q point number     1, representations:
       0 1 2
      q point number     2, representations:
       0 1 2 3 4
      q point number     3, representations:
       0 1 2 3 4
      q point number     4, representations:
       0 1 2 3 4 5 6
      q point number     5, representations:
       0 1 2 3 4

     Calculation of q =    0.0000000   0.0000000   0.0000000

                                                                                

     bravais-lattice index     =            2
     lattice parameter (alat)  =      10.5000  a.u.
     unit-cell volume          =     289.4062 (a.u.)^3
     number of atoms/cell      =            2
     number of atomic types    =            2
     kinetic-energy cut-off    =      16.0000  Ry
     charge density cut-off    =      64.0000  Ry
     convergence threshold     =      1.0E-12
     beta                      =       0.7000
     number of iterations used =            4
     Exchange-correlation      =  SLA  PZ   NOGX NOGC ( 1  1  0  0 0 0)


     celldm(1)=   10.50000  celldm(2)=    0.00000  celldm(3)=    0.00000
     celldm(4)=    0.00000  celldm(5)=    0.00000  celldm(6)=    0.00000

     crystal axes: (cart. coord. in units of alat)
               a(1) = ( -0.5000  0.0000  0.5000 )  
               a(2) = (  0.0000  0.5000  0.5000 )  
               a(3) = ( -0.5000  0.5000  0.0000 )  

     reciprocal axes: (cart. coord. in units 2 pi/alat)
               b(1) = ( -1.0000 -1.0000  1.0000 )  
               b(2) = (  1.0000  1.0000  1.0000 )  
               b(3) = ( -1.0000  1.0000 -1.0000 )  


     Atoms inside the unit cell: 

     Cartesian axes

     site n.  atom      mass           positions (alat units)
        1     Al  26.9800   tau(    1) = (    0.00000    0.00000    0.00000  )
        2     As  74.9200   tau(    2) = (    0.25000    0.25000    0.25000  )

     Computing dynamical matrix for 
                    q = (   0.0000000   0.0000000   0.0000000 )
 
     25 Sym.Ops. (with q -> -q+G )


     G cutoff =  178.7306  (   1224 G-vectors)     FFT grid: ( 20, 20, 20)
     number of k points=     2

     PseudoPot. # 1 for Al read from file:
     /home/nvarini/espresso_hdf5/espresso/pseudo/Al.pz-vbc.UPF
     MD5 check sum: 614279c88ff8d45c90147292d03ed420
     Pseudo is Norm-conserving, Zval =  3.0
     Generated by new atomic code, or converted to UPF format
     Using radial grid of  171 points,  2 beta functions with: 
                l(1) =   0
                l(2) =   1

     PseudoPot. # 2 for As read from file:
     /home/nvarini/espresso_hdf5/espresso/pseudo/As.pz-bhs.UPF
     MD5 check sum: 451cd3365afcfc94d28b1934951c34a8
     Pseudo is Norm-conserving, Zval =  5.0
     Generated by new atomic code, or converted to UPF format
     Using radial grid of  525 points,  2 beta functions with: 
                l(1) =   0
                l(2) =   1

     Mode symmetry, T_d (-43m)  point group:


     Electric field:
     Dielectric constant
     Born effective charges in two ways 


     Atomic displacements:
     There are   2 irreducible representations

     Representation     1      3 modes -T_2  G_15 P_4  To be done

     Representation     2      3 modes -T_2  G_15 P_4  To be done



     Alpha used in Ewald sum =   0.7000
     PHONON       :     0.43s CPU         0.45s WALL


     Electric Fields Calculation

      iter #   1 total cpu time :     0.5 secs   av.it.:   6.0
      thresh= 1.000E-02 alpha_mix =  0.700 |ddv_scf|^2 =  1.326E-06

      iter #   2 total cpu time :     0.6 secs   av.it.:   9.3
      thresh= 1.151E-04 alpha_mix =  0.700 |ddv_scf|^2 =  6.508E-08

      iter #   3 total cpu time :     0.7 secs   av.it.:   9.5
      thresh= 2.551E-05 alpha_mix =  0.700 |ddv_scf|^2 =  6.401E-10

      iter #   4 total cpu time :     0.7 secs   av.it.:   9.8
      thresh= 2.530E-06 alpha_mix =  0.700 |ddv_scf|^2 =  3.108E-12

      iter #   5 total cpu time :     0.8 secs   av.it.:   9.0
      thresh= 1.763E-07 alpha_mix =  0.700 |ddv_scf|^2 =  1.543E-14

     End of electric fields calculation

          Dielectric constant in cartesian axis 

          (      13.744216098       0.000000000      -0.000000000 )
          (       0.000000000      13.744216098       0.000000000 )
          (      -0.000000000       0.000000000      13.744216098 )

          Effective charges (d Force / dE) in cartesian axis

           atom      1   Al 
      Ex  (        1.88265        0.00000        0.00000 )
      Ey  (        0.00000        1.88265        0.00000 )
      Ez  (        0.00000        0.00000        1.88265 )
           atom      2   As 
      Ex  (       -3.23374        0.00000        0.00000 )
      Ey  (        0.00000       -3.23374        0.00000 )
      Ez  (        0.00000        0.00000       -3.23374 )


     Representation #  1 modes #   1  2  3

     Self-consistent Calculation

      iter #   1 total cpu time :     0.8 secs   av.it.:   6.0
      thresh= 1.000E-02 alpha_mix =  0.700 |ddv_scf|^2 =  4.662E-07

      iter #   2 total cpu time :     0.9 secs   av.it.:  10.2
      thresh= 6.828E-05 alpha_mix =  0.700 |ddv_scf|^2 =  2.270E-08

      iter #   3 total cpu time :     1.0 secs   av.it.:   9.8
      thresh= 1.507E-05 alpha_mix =  0.700 |ddv_scf|^2 =  3.782E-11

      iter #   4 total cpu time :     1.0 secs   av.it.:   9.7
      thresh= 6.150E-07 alpha_mix =  0.700 |ddv_scf|^2 =  7.213E-13

     End of self-consistent calculation

     Convergence has been achieved 


     Representation #  2 modes #   4  5  6

     Self-consistent Calculation

      iter #   1 total cpu time :     1.1 secs   av.it.:   5.0
      thresh= 1.000E-02 alpha_mix =  0.700 |ddv_scf|^2 =  2.914E-08

      iter #   2 total cpu time :     1.1 secs   av.it.:  10.2
      thresh= 1.707E-05 alpha_mix =  0.700 |ddv_scf|^2 =  3.255E-10

      iter #   3 total cpu time :     1.2 secs   av.it.:   9.5
      thresh= 1.804E-06 alpha_mix =  0.700 |ddv_scf|^2 =  3.011E-11

      iter #   4 total cpu time :     1.3 secs   av.it.:   9.5
      thresh= 5.487E-07 alpha_mix =  0.700 |ddv_scf|^2 =  1.286E-12

      iter #   5 total cpu time :     1.3 secs   av.it.:   9.5
      thresh= 1.134E-07 alpha_mix =  0.700 |ddv_scf|^2 =  4.667E-16

     End of self-consistent calculation

     Convergence has been achieved 
 
     Number of q in the star =    1
     List of q in the star:
          1   0.000000000   0.000000000   0.000000000

          Dielectric constant in cartesian axis 

          (      13.744216098       0.000000000      -0.000000000 )
          (       0.000000000      13.744216098       0.000000000 )
          (      -0.000000000       0.000000000      13.744216098 )

          Effective charges (d Force / dE) in cartesian axis

           atom      1   Al 
      Ex  (        1.88265        0.00000        0.00000 )
      Ey  (        0.00000        1.88265        0.00000 )
      Ez  (        0.00000        0.00000        1.88265 )
           atom      2   As 
      Ex  (       -3.23374        0.00000        0.00000 )
      Ey  (        0.00000       -3.23374        0.00000 )
      Ez  (        0.00000        0.00000       -3.23374 )

          Effective charges (d P / du) in cartesian axis 

           atom      1   Al 
      Px  (        1.88284       -0.00000       -0.00000 )
      Py  (       -0.00000        1.88284       -0.00000 )
      Pz  (       -0.00000       -0.00000        1.88284 )
           atom      2   As 
      Px  (       -3.23836       -0.00000        0.00000 )
      Py  (       -0.00000       -3.23836       -0.00000 )
      Pz  (        0.00000       -0.00000       -3.23836 )

     Diagonalizing the dynamical matrix

     q = (    0.000000000   0.000000000   0.000000000 ) 

 **************************************************************************
     freq (    1) =       0.169172 [THz] =       5.642962 [cm-1]
     freq (    2) =       0.169172 [THz] =       5.642962 [cm-1]
     freq (    3) =       0.169172 [THz] =       5.642962 [cm-1]
     freq (    4) =      11.258821 [THz] =     375.553839 [cm-1]
     freq (    5) =      11.258821 [THz] =     375.553839 [cm-1]
     freq (    6) =      11.258821 [THz] =     375.553839 [cm-1]
 **************************************************************************

     Mode symmetry, T_d (-43m)  point group:

     freq (  1 -  3) =          5.6  [cm-1]   --> T_2  G_15 P_4   I+R
     freq (  4 -  6) =        375.6  [cm-1]   --> T_2  G_15 P_4   I+R

     Calculation of q =   -0.2500000   0.2500000  -0.2500000
 
     Parallelization info
     --------------------
     sticks:   dense  smooth     PW     G-vecs:    dense   smooth      PW
     Min         120     120     42                 1221     1221     264
     Max         121     121     43                 1224     1224     267
     Sum         241     241     85                 2445     2445     531
 


     bravais-lattice index     =            2
     lattice parameter (alat)  =      10.5000  a.u.
     unit-cell volume          =     289.4062 (a.u.)^3
     number of atoms/cell      =            2
     number of atomic types    =            2
     number of electrons       =         8.00
     number of Kohn-Sham states=            4
     kinetic-energy cutoff     =      16.0000  Ry
     charge density cutoff     =      64.0000  Ry
     Exchange-correlation      =  SLA  PZ   NOGX NOGC ( 1  1  0  0 0 0)

     celldm(1)=  10.500000  celldm(2)=   0.000000  celldm(3)=   0.000000
     celldm(4)=   0.000000  celldm(5)=   0.000000  celldm(6)=   0.000000

     crystal axes: (cart. coord. in units of alat)
               a(1) = (  -0.500000   0.000000   0.500000 )  
               a(2) = (   0.000000   0.500000   0.500000 )  
               a(3) = (  -0.500000   0.500000   0.000000 )  

     reciprocal axes: (cart. coord. in units 2 pi/alat)
               b(1) = ( -1.000000 -1.000000  1.000000 )  
               b(2) = (  1.000000  1.000000  1.000000 )  
               b(3) = ( -1.000000  1.000000 -1.000000 )  


     PseudoPot. # 1 for Al read from file:
     /home/nvarini/espresso_hdf5/espresso/pseudo/Al.pz-vbc.UPF
     MD5 check sum: 614279c88ff8d45c90147292d03ed420
     Pseudo is Norm-conserving, Zval =  3.0
     Generated by new atomic code, or converted to UPF format
     Using radial grid of  171 points,  2 beta functions with: 
                l(1) =   0
                l(2) =   1

     PseudoPot. # 2 for As read from file:
     /home/nvarini/espresso_hdf5/espresso/pseudo/As.pz-bhs.UPF
     MD5 check sum: 451cd3365afcfc94d28b1934951c34a8
     Pseudo is Norm-conserving, Zval =  5.0
     Generated by new atomic code, or converted to UPF format
     Using radial grid of  525 points,  2 beta functions with: 
                l(1) =   0
                l(2) =   1

     atomic species   valence    mass     pseudopotential
        Al             3.00    26.98000     Al( 1.00)
        As             5.00    74.92000     As( 1.00)

     24 Sym. Ops. (no inversion) found



   Cartesian axes

     site n.     atom                  positions (alat units)
         1           Al  tau(   1) = (   0.0000000   0.0000000   0.0000000  )
         2           As  tau(   2) = (   0.2500000   0.2500000   0.2500000  )

     number of k points=    20
                       cart. coord. in units 2pi/alat
        k(    1) = (   0.2500000   0.2500000   0.2500000), wk =   0.1875000
        k(    2) = (   0.0000000   0.5000000   0.0000000), wk =   0.0000000
        k(    3) = (   0.2500000   0.2500000   0.7500000), wk =   0.3750000
        k(    4) = (   0.0000000   0.5000000   0.5000000), wk =   0.0000000
        k(    5) = (  -0.2500000   0.2500000  -0.2500000), wk =   0.0625000
        k(    6) = (  -0.5000000   0.5000000  -0.5000000), wk =   0.0000000
        k(    7) = (  -0.2500000  -0.2500000  -0.2500000), wk =   0.1875000
        k(    8) = (  -0.5000000   0.0000000  -0.5000000), wk =   0.0000000
        k(    9) = (   0.2500000  -0.2500000   0.2500000), wk =   0.0625000
        k(   10) = (   0.0000000   0.0000000   0.0000000), wk =   0.0000000
        k(   11) = (  -0.7500000  -0.2500000   0.2500000), wk =   0.1875000
        k(   12) = (  -1.0000000   0.0000000   0.0000000), wk =   0.0000000
        k(   13) = (  -0.7500000   0.2500000  -0.2500000), wk =   0.1875000
        k(   14) = (  -1.0000000   0.5000000  -0.5000000), wk =   0.0000000
        k(   15) = (  -0.2500000  -0.2500000  -0.7500000), wk =   0.3750000
        k(   16) = (  -0.5000000   0.0000000  -1.0000000), wk =   0.0000000
        k(   17) = (   0.2500000  -0.2500000   0.7500000), wk =   0.1875000
        k(   18) = (   0.0000000   0.0000000   0.5000000), wk =   0.0000000
        k(   19) = (  -0.2500000   0.2500000   0.7500000), wk =   0.1875000
        k(   20) = (  -0.5000000   0.5000000   0.5000000), wk =   0.0000000

     Dense  grid:     2445 G-vectors     FFT dimensions: (  20,  20,  20)

     Estimated max dynamical RAM per process >       0.51Mb

     Estimated total allocated dynamical RAM >       1.02Mb

     The potential is recalculated from file :
     /home/nvarini/espresso_hdf5/espresso/tempdir/_ph0/alas.save/charge-density.hdf5

     Starting wfc are    8 atomic wfcs

     Band Structure Calculation
     Davidson diagonalization with overlap

     ethr =  1.25E-10,  avg # of iterations = 11.0

     total cpu time spent up to now is        0.2 secs

     End of band structure calculation

          k = 0.2500 0.2500 0.2500 (   311 PWs)   bands (ev):

    -6.3575   1.7035   4.6970   4.6970

          k = 0.0000 0.5000 0.0000 (   311 PWs)   bands (ev):

    -6.1430   1.9396   3.7847   3.7847

          k = 0.2500 0.2500 0.7500 (   311 PWs)   bands (ev):

    -5.1819  -0.0415   2.3125   3.5086

          k = 0.0000 0.5000 0.5000 (   315 PWs)   bands (ev):

    -5.5287   0.5005   2.1485   4.2663

          k =-0.2500 0.2500-0.2500 (   311 PWs)   bands (ev):

    -6.3575   1.7035   4.6970   4.6970

          k =-0.5000 0.5000-0.5000 (   302 PWs)   bands (ev):

    -5.4218  -0.6403   4.3483   4.3483

          k =-0.2500-0.2500-0.2500 (   311 PWs)   bands (ev):

    -6.3575   1.7035   4.6970   4.6970

          k =-0.5000 0.0000-0.5000 (   315 PWs)   bands (ev):

    -5.5287   0.5005   2.1485   4.2663

          k = 0.2500-0.2500 0.2500 (   311 PWs)   bands (ev):

    -6.3575   1.7035   4.6970   4.6970

          k = 0.0000 0.0000 0.0000 (   331 PWs)   bands (ev):

    -6.9797   5.1761   5.1761   5.1761

          k =-0.7500-0.2500 0.2500 (   311 PWs)   bands (ev):

    -5.1819  -0.0415   2.3125   3.5086

          k =-1.0000 0.0000 0.0000 (   302 PWs)   bands (ev):

    -4.8217  -0.4470   2.9274   2.9274

          k =-0.7500 0.2500-0.2500 (   311 PWs)   bands (ev):

    -5.1819  -0.0415   2.3125   3.5086

          k =-1.0000 0.5000-0.5000 (   315 PWs)   bands (ev):

    -5.5287   0.5005   2.1485   4.2663

          k =-0.2500-0.2500-0.7500 (   311 PWs)   bands (ev):

    -5.1819  -0.0415   2.3125   3.5086

          k =-0.5000 0.0000-1.0000 (   308 PWs)   bands (ev):

    -4.7852  -0.0517   1.7949   2.1910

          k = 0.2500-0.2500 0.7500 (   311 PWs)   bands (ev):

    -5.1819  -0.0415   2.3125   3.5086

          k = 0.0000 0.0000 0.5000 (   311 PWs)   bands (ev):

    -6.1430   1.9396   3.7847   3.7847

          k =-0.2500 0.2500 0.7500 (   311 PWs)   bands (ev):

    -5.1819  -0.0415   2.3125   3.5086

          k =-0.5000 0.5000 0.5000 (   302 PWs)   bands (ev):

    -5.4218  -0.6403   4.3483   4.3483

     highest occupied level (ev):     5.1761

     Writing output data file alas.save

                                                                                

     bravais-lattice index     =            2
     lattice parameter (alat)  =      10.5000  a.u.
     unit-cell volume          =     289.4062 (a.u.)^3
     number of atoms/cell      =            2
     number of atomic types    =            2
     kinetic-energy cut-off    =      16.0000  Ry
     charge density cut-off    =      64.0000  Ry
     convergence threshold     =      1.0E-12
     beta                      =       0.7000
     number of iterations used =            4
     Exchange-correlation      =  SLA  PZ   NOGX NOGC ( 1  1  0  0 0 0)


     celldm(1)=   10.50000  celldm(2)=    0.00000  celldm(3)=    0.00000
     celldm(4)=    0.00000  celldm(5)=    0.00000  celldm(6)=    0.00000

     crystal axes: (cart. coord. in units of alat)
               a(1) = ( -0.5000  0.0000  0.5000 )  
               a(2) = (  0.0000  0.5000  0.5000 )  
               a(3) = ( -0.5000  0.5000  0.0000 )  

     reciprocal axes: (cart. coord. in units 2 pi/alat)
               b(1) = ( -1.0000 -1.0000  1.0000 )  
               b(2) = (  1.0000  1.0000  1.0000 )  
               b(3) = ( -1.0000  1.0000 -1.0000 )  


     Atoms inside the unit cell: 

     Cartesian axes

     site n.  atom      mass           positions (alat units)
        1     Al  26.9800   tau(    1) = (    0.00000    0.00000    0.00000  )
        2     As  74.9200   tau(    2) = (    0.25000    0.25000    0.25000  )

     Computing dynamical matrix for 
                    q = (  -0.2500000   0.2500000  -0.2500000 )
 
      6 Sym.Ops. (no q -> -q+G )


     G cutoff =  178.7306  (   1224 G-vectors)     FFT grid: ( 20, 20, 20)
     number of k points=    20

     PseudoPot. # 1 for Al read from file:
     /home/nvarini/espresso_hdf5/espresso/pseudo/Al.pz-vbc.UPF
     MD5 check sum: 614279c88ff8d45c90147292d03ed420
     Pseudo is Norm-conserving, Zval =  3.0
     Generated by new atomic code, or converted to UPF format
     Using radial grid of  171 points,  2 beta functions with: 
                l(1) =   0
                l(2) =   1

     PseudoPot. # 2 for As read from file:
     /home/nvarini/espresso_hdf5/espresso/pseudo/As.pz-bhs.UPF
     MD5 check sum: 451cd3365afcfc94d28b1934951c34a8
     Pseudo is Norm-conserving, Zval =  5.0
     Generated by new atomic code, or converted to UPF format
     Using radial grid of  525 points,  2 beta functions with: 
                l(1) =   0
                l(2) =   1

     Mode symmetry, C_3v (3m)   point group:


     Atomic displacements:
     There are   4 irreducible representations

     Representation     1      1 modes -A_1  L_1  To be done

     Representation     2      1 modes -A_1  L_1  To be done

     Representation     3      2 modes -E    L_3  To be done

     Representation     4      2 modes -E    L_3  To be done



     Alpha used in Ewald sum =   0.7000
     PHONON       :     1.56s CPU         1.63s WALL



     Representation #  1 mode #   1

     Self-consistent Calculation

      iter #   1 total cpu time :     1.7 secs   av.it.:   6.2
      thresh= 1.000E-02 alpha_mix =  0.700 |ddv_scf|^2 =  3.084E-03

      iter #   2 total cpu time :     1.8 secs   av.it.:   7.6
      thresh= 5.553E-03 alpha_mix =  0.700 |ddv_scf|^2 =  2.964E-02

      iter #   3 total cpu time :     1.8 secs   av.it.:   6.8
      thresh= 1.000E-02 alpha_mix =  0.700 |ddv_scf|^2 =  6.321E-06

      iter #   4 total cpu time :     1.9 secs   av.it.:   7.2
      thresh= 2.514E-04 alpha_mix =  0.700 |ddv_scf|^2 =  1.379E-07

      iter #   5 total cpu time :     1.9 secs   av.it.:   7.6
      thresh= 3.713E-05 alpha_mix =  0.700 |ddv_scf|^2 =  4.340E-09

      iter #   6 total cpu time :     2.0 secs   av.it.:   7.0
      thresh= 6.588E-06 alpha_mix =  0.700 |ddv_scf|^2 =  5.047E-10

      iter #   7 total cpu time :     2.1 secs   av.it.:   7.1
      thresh= 2.246E-06 alpha_mix =  0.700 |ddv_scf|^2 =  3.632E-11

      iter #   8 total cpu time :     2.1 secs   av.it.:   7.2
      thresh= 6.027E-07 alpha_mix =  0.700 |ddv_scf|^2 =  2.212E-13

     End of self-consistent calculation

     Convergence has been achieved 


     Representation #  2 mode #   2

     Self-consistent Calculation

      iter #   1 total cpu time :     2.2 secs   av.it.:   5.6
      thresh= 1.000E-02 alpha_mix =  0.700 |ddv_scf|^2 =  6.514E-04

      iter #   2 total cpu time :     2.2 secs   av.it.:   7.6
      thresh= 2.552E-03 alpha_mix =  0.700 |ddv_scf|^2 =  5.928E-03

      iter #   3 total cpu time :     2.3 secs   av.it.:   6.2
      thresh= 7.699E-03 alpha_mix =  0.700 |ddv_scf|^2 =  2.186E-07

      iter #   4 total cpu time :     2.4 secs   av.it.:   8.2
      thresh= 4.675E-05 alpha_mix =  0.700 |ddv_scf|^2 =  7.848E-09

      iter #   5 total cpu time :     2.4 secs   av.it.:   8.1
      thresh= 8.859E-06 alpha_mix =  0.700 |ddv_scf|^2 =  1.497E-09

      iter #   6 total cpu time :     2.5 secs   av.it.:   7.0
      thresh= 3.869E-06 alpha_mix =  0.700 |ddv_scf|^2 =  4.445E-10

      iter #   7 total cpu time :     2.6 secs   av.it.:   7.4
      thresh= 2.108E-06 alpha_mix =  0.700 |ddv_scf|^2 =  1.770E-11

      iter #   8 total cpu time :     2.6 secs   av.it.:   7.5
      thresh= 4.207E-07 alpha_mix =  0.700 |ddv_scf|^2 =  4.788E-13

     End of self-consistent calculation

     Convergence has been achieved 


     Representation #  3 modes #   3  4

     Self-consistent Calculation

      iter #   1 total cpu time :     2.7 secs   av.it.:   5.9
      thresh= 1.000E-02 alpha_mix =  0.700 |ddv_scf|^2 =  1.311E-06

      iter #   2 total cpu time :     2.9 secs   av.it.:   9.0
      thresh= 1.145E-04 alpha_mix =  0.700 |ddv_scf|^2 =  9.078E-08

      iter #   3 total cpu time :     3.0 secs   av.it.:   9.0
      thresh= 3.013E-05 alpha_mix =  0.700 |ddv_scf|^2 =  8.920E-11

      iter #   4 total cpu time :     3.1 secs   av.it.:   9.1
      thresh= 9.444E-07 alpha_mix =  0.700 |ddv_scf|^2 =  1.644E-12

      iter #   5 total cpu time :     3.3 secs   av.it.:   8.9
      thresh= 1.282E-07 alpha_mix =  0.700 |ddv_scf|^2 =  1.869E-14

     End of self-consistent calculation

     Convergence has been achieved 


     Representation #  4 modes #   5  6

     Self-consistent Calculation

      iter #   1 total cpu time :     3.4 secs   av.it.:   5.0
      thresh= 1.000E-02 alpha_mix =  0.700 |ddv_scf|^2 =  1.107E-07

      iter #   2 total cpu time :     3.5 secs   av.it.:   9.5
      thresh= 3.328E-05 alpha_mix =  0.700 |ddv_scf|^2 =  4.487E-09

      iter #   3 total cpu time :     3.6 secs   av.it.:   9.2
      thresh= 6.698E-06 alpha_mix =  0.700 |ddv_scf|^2 =  1.322E-10

      iter #   4 total cpu time :     3.8 secs   av.it.:   9.1
      thresh= 1.150E-06 alpha_mix =  0.700 |ddv_scf|^2 =  6.937E-12

      iter #   5 total cpu time :     3.9 secs   av.it.:   8.9
      thresh= 2.634E-07 alpha_mix =  0.700 |ddv_scf|^2 =  1.158E-15

     End of self-consistent calculation

     Convergence has been achieved 
 
     Number of q in the star =    4
     List of q in the star:
          1  -0.250000000   0.250000000  -0.250000000
          2   0.250000000  -0.250000000  -0.250000000
          3  -0.250000000  -0.250000000   0.250000000
          4   0.250000000   0.250000000   0.250000000
     In addition there is the -q list: 
          1   0.250000000  -0.250000000   0.250000000
          2  -0.250000000   0.250000000   0.250000000
          3   0.250000000   0.250000000  -0.250000000
          4  -0.250000000  -0.250000000  -0.250000000

     Diagonalizing the dynamical matrix

     q = (   -0.250000000   0.250000000  -0.250000000 ) 

 **************************************************************************
     freq (    1) =       1.761234 [THz] =      58.748456 [cm-1]
     freq (    2) =       1.761234 [THz] =      58.748456 [cm-1]
     freq (    3) =       4.534231 [THz] =     151.245656 [cm-1]
     freq (    4) =      11.004848 [THz] =     367.082226 [cm-1]
     freq (    5) =      11.004848 [THz] =     367.082226 [cm-1]
     freq (    6) =      12.136529 [THz] =     404.831037 [cm-1]
 **************************************************************************

     Mode symmetry, C_3v (3m)   point group:

     freq (  1 -  2) =         58.7  [cm-1]   --> E    L_3           
     freq (  3 -  3) =        151.2  [cm-1]   --> A_1  L_1           
     freq (  4 -  5) =        367.1  [cm-1]   --> E    L_3           
     freq (  6 -  6) =        404.8  [cm-1]   --> A_1  L_1           

     Calculation of q =    0.5000000  -0.5000000   0.5000000
 
     Parallelization info
     --------------------
     sticks:   dense  smooth     PW     G-vecs:    dense   smooth      PW
     Min         120     120     42                 1221     1221     267
     Max         121     121     43                 1224     1224     270
     Sum         241     241     85                 2445     2445     537
 


     bravais-lattice index     =            2
     lattice parameter (alat)  =      10.5000  a.u.
     unit-cell volume          =     289.4062 (a.u.)^3
     number of atoms/cell      =            2
     number of atomic types    =            2
     number of electrons       =         8.00
     number of Kohn-Sham states=            4
     kinetic-energy cutoff     =      16.0000  Ry
     charge density cutoff     =      64.0000  Ry
     Exchange-correlation      =  SLA  PZ   NOGX NOGC ( 1  1  0  0 0 0)

     celldm(1)=  10.500000  celldm(2)=   0.000000  celldm(3)=   0.000000
     celldm(4)=   0.000000  celldm(5)=   0.000000  celldm(6)=   0.000000

     crystal axes: (cart. coord. in units of alat)
               a(1) = (  -0.500000   0.000000   0.500000 )  
               a(2) = (   0.000000   0.500000   0.500000 )  
               a(3) = (  -0.500000   0.500000   0.000000 )  

     reciprocal axes: (cart. coord. in units 2 pi/alat)
               b(1) = ( -1.000000 -1.000000  1.000000 )  
               b(2) = (  1.000000  1.000000  1.000000 )  
               b(3) = ( -1.000000  1.000000 -1.000000 )  


     PseudoPot. # 1 for Al read from file:
     /home/nvarini/espresso_hdf5/espresso/pseudo/Al.pz-vbc.UPF
     MD5 check sum: 614279c88ff8d45c90147292d03ed420
     Pseudo is Norm-conserving, Zval =  3.0
     Generated by new atomic code, or converted to UPF format
     Using radial grid of  171 points,  2 beta functions with: 
                l(1) =   0
                l(2) =   1

     PseudoPot. # 2 for As read from file:
     /home/nvarini/espresso_hdf5/espresso/pseudo/As.pz-bhs.UPF
     MD5 check sum: 451cd3365afcfc94d28b1934951c34a8
     Pseudo is Norm-conserving, Zval =  5.0
     Generated by new atomic code, or converted to UPF format
     Using radial grid of  525 points,  2 beta functions with: 
                l(1) =   0
                l(2) =   1

     atomic species   valence    mass     pseudopotential
        Al             3.00    26.98000     Al( 1.00)
        As             5.00    74.92000     As( 1.00)

     24 Sym. Ops. (no inversion) found



   Cartesian axes

     site n.     atom                  positions (alat units)
         1           Al  tau(   1) = (   0.0000000   0.0000000   0.0000000  )
         2           As  tau(   2) = (   0.2500000   0.2500000   0.2500000  )

     number of k points=    10
                       cart. coord. in units 2pi/alat
        k(    1) = (   0.2500000   0.2500000   0.2500000), wk =   0.3750000
        k(    2) = (   0.7500000  -0.2500000   0.7500000), wk =   0.0000000
        k(    3) = (   0.2500000   0.2500000   0.7500000), wk =   0.7500000
        k(    4) = (   0.7500000  -0.2500000   1.2500000), wk =   0.0000000
        k(    5) = (  -0.2500000   0.2500000  -0.2500000), wk =   0.1250000
        k(    6) = (   0.2500000  -0.2500000   0.2500000), wk =   0.0000000
        k(    7) = (  -0.7500000  -0.2500000   0.2500000), wk =   0.3750000
        k(    8) = (  -0.2500000  -0.7500000   0.7500000), wk =   0.0000000
        k(    9) = (  -0.7500000   0.2500000  -0.2500000), wk =   0.3750000
        k(   10) = (  -0.2500000  -0.2500000   0.2500000), wk =   0.0000000

     Dense  grid:     2445 G-vectors     FFT dimensions: (  20,  20,  20)

     Estimated max dynamical RAM per process >       0.51Mb

     Estimated total allocated dynamical RAM >       1.02Mb

     The potential is recalculated from file :
     /home/nvarini/espresso_hdf5/espresso/tempdir/_ph0/alas.save/charge-density.hdf5

     Starting wfc are    8 atomic wfcs

     Band Structure Calculation
     Davidson diagonalization with overlap

     ethr =  1.25E-10,  avg # of iterations = 11.6

     total cpu time spent up to now is        0.4 secs

     End of band structure calculation

          k = 0.2500 0.2500 0.2500 (   311 PWs)   bands (ev):

    -6.3575   1.7035   4.6970   4.6970

          k = 0.7500-0.2500 0.7500 (   311 PWs)   bands (ev):

    -5.1819  -0.0415   2.3125   3.5086

          k = 0.2500 0.2500 0.7500 (   311 PWs)   bands (ev):

    -5.1819  -0.0415   2.3125   3.5086

          k = 0.7500-0.2500 1.2500 (   311 PWs)   bands (ev):

    -5.1819  -0.0415   2.3125   3.5086

          k =-0.2500 0.2500-0.2500 (   311 PWs)   bands (ev):

    -6.3575   1.7035   4.6970   4.6970

          k = 0.2500-0.2500 0.2500 (   311 PWs)   bands (ev):

    -6.3575   1.7035   4.6970   4.6970

          k =-0.7500-0.2500 0.2500 (   311 PWs)   bands (ev):

    -5.1819  -0.0415   2.3125   3.5086

          k =-0.2500-0.7500 0.7500 (   311 PWs)   bands (ev):

    -5.1819  -0.0415   2.3125   3.5086

          k =-0.7500 0.2500-0.2500 (   311 PWs)   bands (ev):

    -5.1819  -0.0415   2.3125   3.5086

          k =-0.2500-0.2500 0.2500 (   311 PWs)   bands (ev):

    -6.3575   1.7035   4.6970   4.6970

     highest occupied level (ev):     4.6970

     Writing output data file alas.save

                                                                                

     bravais-lattice index     =            2
     lattice parameter (alat)  =      10.5000  a.u.
     unit-cell volume          =     289.4062 (a.u.)^3
     number of atoms/cell      =            2
     number of atomic types    =            2
     kinetic-energy cut-off    =      16.0000  Ry
     charge density cut-off    =      64.0000  Ry
     convergence threshold     =      1.0E-12
     beta                      =       0.7000
     number of iterations used =            4
     Exchange-correlation      =  SLA  PZ   NOGX NOGC ( 1  1  0  0 0 0)


     celldm(1)=   10.50000  celldm(2)=    0.00000  celldm(3)=    0.00000
     celldm(4)=    0.00000  celldm(5)=    0.00000  celldm(6)=    0.00000

     crystal axes: (cart. coord. in units of alat)
               a(1) = ( -0.5000  0.0000  0.5000 )  
               a(2) = (  0.0000  0.5000  0.5000 )  
               a(3) = ( -0.5000  0.5000  0.0000 )  

     reciprocal axes: (cart. coord. in units 2 pi/alat)
               b(1) = ( -1.0000 -1.0000  1.0000 )  
               b(2) = (  1.0000  1.0000  1.0000 )  
               b(3) = ( -1.0000  1.0000 -1.0000 )  


     Atoms inside the unit cell: 

     Cartesian axes

     site n.  atom      mass           positions (alat units)
        1     Al  26.9800   tau(    1) = (    0.00000    0.00000    0.00000  )
        2     As  74.9200   tau(    2) = (    0.25000    0.25000    0.25000  )

     Computing dynamical matrix for 
                    q = (   0.5000000  -0.5000000   0.5000000 )
 
      7 Sym.Ops. (with q -> -q+G )


     G cutoff =  178.7306  (   1224 G-vectors)     FFT grid: ( 20, 20, 20)
     number of k points=    10

     PseudoPot. # 1 for Al read from file:
     /home/nvarini/espresso_hdf5/espresso/pseudo/Al.pz-vbc.UPF
     MD5 check sum: 614279c88ff8d45c90147292d03ed420
     Pseudo is Norm-conserving, Zval =  3.0
     Generated by new atomic code, or converted to UPF format
     Using radial grid of  171 points,  2 beta functions with: 
                l(1) =   0
                l(2) =   1

     PseudoPot. # 2 for As read from file:
     /home/nvarini/espresso_hdf5/espresso/pseudo/As.pz-bhs.UPF
     MD5 check sum: 451cd3365afcfc94d28b1934951c34a8
     Pseudo is Norm-conserving, Zval =  5.0
     Generated by new atomic code, or converted to UPF format
     Using radial grid of  525 points,  2 beta functions with: 
                l(1) =   0
                l(2) =   1

     Mode symmetry, C_3v (3m)   point group:


     Atomic displacements:
     There are   4 irreducible representations

     Representation     1      1 modes -A_1  L_1  To be done

     Representation     2      1 modes -A_1  L_1  To be done

     Representation     3      2 modes -E    L_3  To be done

     Representation     4      2 modes -E    L_3  To be done



     Alpha used in Ewald sum =   0.7000
     PHONON       :     3.89s CPU         4.10s WALL



     Representation #  1 mode #   1

     Self-consistent Calculation

      iter #   1 total cpu time :     4.1 secs   av.it.:   6.2
      thresh= 1.000E-02 alpha_mix =  0.700 |ddv_scf|^2 =  3.570E-04

      iter #   2 total cpu time :     4.2 secs   av.it.:   8.2
      thresh= 1.889E-03 alpha_mix =  0.700 |ddv_scf|^2 =  1.022E-03

      iter #   3 total cpu time :     4.2 secs   av.it.:   7.4
      thresh= 3.198E-03 alpha_mix =  0.700 |ddv_scf|^2 =  5.291E-08

      iter #   4 total cpu time :     4.2 secs   av.it.:   8.0
      thresh= 2.300E-05 alpha_mix =  0.700 |ddv_scf|^2 =  8.137E-09

      iter #   5 total cpu time :     4.3 secs   av.it.:   7.6
      thresh= 9.020E-06 alpha_mix =  0.700 |ddv_scf|^2 =  4.323E-11

      iter #   6 total cpu time :     4.3 secs   av.it.:   8.4
      thresh= 6.575E-07 alpha_mix =  0.700 |ddv_scf|^2 =  4.551E-12

      iter #   7 total cpu time :     4.3 secs   av.it.:   7.8
      thresh= 2.133E-07 alpha_mix =  0.700 |ddv_scf|^2 =  8.135E-15

     End of self-consistent calculation

     Convergence has been achieved 


     Representation #  2 mode #   2

     Self-consistent Calculation

      iter #   1 total cpu time :     4.4 secs   av.it.:   5.4
      thresh= 1.000E-02 alpha_mix =  0.700 |ddv_scf|^2 =  5.801E-05

      iter #   2 total cpu time :     4.4 secs   av.it.:   8.2
      thresh= 7.616E-04 alpha_mix =  0.700 |ddv_scf|^2 =  1.452E-04

      iter #   3 total cpu time :     4.5 secs   av.it.:   7.4
      thresh= 1.205E-03 alpha_mix =  0.700 |ddv_scf|^2 =  6.727E-07

      iter #   4 total cpu time :     4.5 secs   av.it.:   7.6
      thresh= 8.202E-05 alpha_mix =  0.700 |ddv_scf|^2 =  4.019E-09

      iter #   5 total cpu time :     4.5 secs   av.it.:   8.0
      thresh= 6.339E-06 alpha_mix =  0.700 |ddv_scf|^2 =  7.124E-11

      iter #   6 total cpu time :     4.6 secs   av.it.:   8.4
      thresh= 8.441E-07 alpha_mix =  0.700 |ddv_scf|^2 =  1.225E-12

      iter #   7 total cpu time :     4.6 secs   av.it.:   8.2
      thresh= 1.107E-07 alpha_mix =  0.700 |ddv_scf|^2 =  2.281E-14

     End of self-consistent calculation

     Convergence has been achieved 


     Representation #  3 modes #   3  4

     Self-consistent Calculation

      iter #   1 total cpu time :     4.7 secs   av.it.:   6.0
      thresh= 1.000E-02 alpha_mix =  0.700 |ddv_scf|^2 =  1.539E-06

      iter #   2 total cpu time :     4.7 secs   av.it.:   9.2
      thresh= 1.241E-04 alpha_mix =  0.700 |ddv_scf|^2 =  1.304E-07

      iter #   3 total cpu time :     4.8 secs   av.it.:   9.0
      thresh= 3.611E-05 alpha_mix =  0.700 |ddv_scf|^2 =  8.948E-11

      iter #   4 total cpu time :     4.9 secs   av.it.:   9.2
      thresh= 9.459E-07 alpha_mix =  0.700 |ddv_scf|^2 =  6.988E-13

     End of self-consistent calculation

     Convergence has been achieved 


     Representation #  4 modes #   5  6

     Self-consistent Calculation

      iter #   1 total cpu time :     4.9 secs   av.it.:   4.8
      thresh= 1.000E-02 alpha_mix =  0.700 |ddv_scf|^2 =  1.481E-07

      iter #   2 total cpu time :     5.0 secs   av.it.:   9.0
      thresh= 3.849E-05 alpha_mix =  0.700 |ddv_scf|^2 =  8.871E-09

      iter #   3 total cpu time :     5.1 secs   av.it.:   9.0
      thresh= 9.418E-06 alpha_mix =  0.700 |ddv_scf|^2 =  1.468E-10

      iter #   4 total cpu time :     5.1 secs   av.it.:   9.1
      thresh= 1.211E-06 alpha_mix =  0.700 |ddv_scf|^2 =  7.523E-12

      iter #   5 total cpu time :     5.2 secs   av.it.:   8.2
      thresh= 2.743E-07 alpha_mix =  0.700 |ddv_scf|^2 =  2.713E-15

     End of self-consistent calculation

     Convergence has been achieved 
 
     Number of q in the star =    4
     List of q in the star:
          1   0.500000000  -0.500000000   0.500000000
          2  -0.500000000   0.500000000   0.500000000
          3   0.500000000   0.500000000  -0.500000000
          4  -0.500000000  -0.500000000  -0.500000000

     Diagonalizing the dynamical matrix

     q = (    0.500000000  -0.500000000   0.500000000 ) 

 **************************************************************************
     freq (    1) =       2.016599 [THz] =      67.266496 [cm-1]
     freq (    2) =       2.016599 [THz] =      67.266496 [cm-1]
     freq (    3) =       6.494344 [THz] =     216.628002 [cm-1]
     freq (    4) =      10.940840 [THz] =     364.947149 [cm-1]
     freq (    5) =      10.940840 [THz] =     364.947149 [cm-1]
     freq (    6) =      11.551687 [THz] =     385.322803 [cm-1]
 **************************************************************************

     Mode symmetry, C_3v (3m)   point group:

     freq (  1 -  2) =         67.3  [cm-1]   --> E    L_3           
     freq (  3 -  3) =        216.6  [cm-1]   --> A_1  L_1           
     freq (  4 -  5) =        364.9  [cm-1]   --> E    L_3           
     freq (  6 -  6) =        385.3  [cm-1]   --> A_1  L_1           

     Calculation of q =    0.0000000   0.5000000   0.0000000
 
     Parallelization info
     --------------------
     sticks:   dense  smooth     PW     G-vecs:    dense   smooth      PW
     Min         120     120     42                 1221     1221     264
     Max         121     121     43                 1224     1224     267
     Sum         241     241     85                 2445     2445     531
 


     bravais-lattice index     =            2
     lattice parameter (alat)  =      10.5000  a.u.
     unit-cell volume          =     289.4062 (a.u.)^3
     number of atoms/cell      =            2
     number of atomic types    =            2
     number of electrons       =         8.00
     number of Kohn-Sham states=            4
     kinetic-energy cutoff     =      16.0000  Ry
     charge density cutoff     =      64.0000  Ry
     Exchange-correlation      =  SLA  PZ   NOGX NOGC ( 1  1  0  0 0 0)

     celldm(1)=  10.500000  celldm(2)=   0.000000  celldm(3)=   0.000000
     celldm(4)=   0.000000  celldm(5)=   0.000000  celldm(6)=   0.000000

     crystal axes: (cart. coord. in units of alat)
               a(1) = (  -0.500000   0.000000   0.500000 )  
               a(2) = (   0.000000   0.500000   0.500000 )  
               a(3) = (  -0.500000   0.500000   0.000000 )  

     reciprocal axes: (cart. coord. in units 2 pi/alat)
               b(1) = ( -1.000000 -1.000000  1.000000 )  
               b(2) = (  1.000000  1.000000  1.000000 )  
               b(3) = ( -1.000000  1.000000 -1.000000 )  


     PseudoPot. # 1 for Al read from file:
     /home/nvarini/espresso_hdf5/espresso/pseudo/Al.pz-vbc.UPF
     MD5 check sum: 614279c88ff8d45c90147292d03ed420
     Pseudo is Norm-conserving, Zval =  3.0
     Generated by new atomic code, or converted to UPF format
     Using radial grid of  171 points,  2 beta functions with: 
                l(1) =   0
                l(2) =   1

     PseudoPot. # 2 for As read from file:
     /home/nvarini/espresso_hdf5/espresso/pseudo/As.pz-bhs.UPF
     MD5 check sum: 451cd3365afcfc94d28b1934951c34a8
     Pseudo is Norm-conserving, Zval =  5.0
     Generated by new atomic code, or converted to UPF format
     Using radial grid of  525 points,  2 beta functions with: 
                l(1) =   0
                l(2) =   1

     atomic species   valence    mass     pseudopotential
        Al             3.00    26.98000     Al( 1.00)
        As             5.00    74.92000     As( 1.00)

     24 Sym. Ops. (no inversion) found



   Cartesian axes

     site n.     atom                  positions (alat units)
         1           Al  tau(   1) = (   0.0000000   0.0000000   0.0000000  )
         2           As  tau(   2) = (   0.2500000   0.2500000   0.2500000  )

     number of k points=    24
                       cart. coord. in units 2pi/alat
        k(    1) = (   0.2500000   0.2500000   0.2500000), wk =   0.1250000
        k(    2) = (   0.2500000   0.7500000   0.2500000), wk =   0.0000000
        k(    3) = (   0.2500000   0.2500000   0.7500000), wk =   0.2500000
        k(    4) = (   0.2500000   0.7500000   0.7500000), wk =   0.0000000
        k(    5) = (  -0.2500000  -0.2500000   0.2500000), wk =   0.1250000
        k(    6) = (  -0.2500000   0.2500000   0.2500000), wk =   0.0000000
        k(    7) = (  -0.2500000  -0.2500000  -0.2500000), wk =   0.1250000
        k(    8) = (  -0.2500000   0.2500000  -0.2500000), wk =   0.0000000
        k(    9) = (   0.2500000   0.2500000  -0.2500000), wk =   0.1250000
        k(   10) = (   0.2500000   0.7500000  -0.2500000), wk =   0.0000000
        k(   11) = (  -0.2500000  -0.2500000   0.7500000), wk =   0.2500000
        k(   12) = (  -0.2500000   0.2500000   0.7500000), wk =   0.0000000
        k(   13) = (  -0.2500000  -0.7500000   0.2500000), wk =   0.1250000
        k(   14) = (  -0.2500000  -0.2500000   0.2500000), wk =   0.0000000
        k(   15) = (  -0.2500000   0.7500000  -0.2500000), wk =   0.1250000
        k(   16) = (  -0.2500000   1.2500000  -0.2500000), wk =   0.0000000
        k(   17) = (  -0.2500000  -0.2500000  -0.7500000), wk =   0.2500000
        k(   18) = (  -0.2500000   0.2500000  -0.7500000), wk =   0.0000000
        k(   19) = (   0.2500000   0.2500000  -0.7500000), wk =   0.2500000
        k(   20) = (   0.2500000   0.7500000  -0.7500000), wk =   0.0000000
        k(   21) = (  -0.2500000   0.7500000   0.2500000), wk =   0.1250000
        k(   22) = (  -0.2500000   1.2500000   0.2500000), wk =   0.0000000
        k(   23) = (  -0.2500000  -0.7500000  -0.2500000), wk =   0.1250000
        k(   24) = (  -0.2500000  -0.2500000  -0.2500000), wk =   0.0000000

     Dense  grid:     2445 G-vectors     FFT dimensions: (  20,  20,  20)

     Estimated max dynamical RAM per process >       0.51Mb

     Estimated total allocated dynamical RAM >       1.02Mb

     The potential is recalculated from file :
     /home/nvarini/espresso_hdf5/espresso/tempdir/_ph0/alas.save/charge-density.hdf5

     Starting wfc are    8 atomic wfcs

     Band Structure Calculation
     Davidson diagonalization with overlap

     ethr =  1.25E-10,  avg # of iterations = 11.7

     total cpu time spent up to now is        0.7 secs

     End of band structure calculation

          k = 0.2500 0.2500 0.2500 (   311 PWs)   bands (ev):

    -6.3575   1.7035   4.6970   4.6970

          k = 0.2500 0.7500 0.2500 (   311 PWs)   bands (ev):

    -5.1819  -0.0415   2.3125   3.5086

          k = 0.2500 0.2500 0.7500 (   311 PWs)   bands (ev):

    -5.1819  -0.0415   2.3125   3.5086

          k = 0.2500 0.7500 0.7500 (   311 PWs)   bands (ev):

    -5.1819  -0.0415   2.3125   3.5086

          k =-0.2500-0.2500 0.2500 (   311 PWs)   bands (ev):

    -6.3575   1.7035   4.6970   4.6970

          k =-0.2500 0.2500 0.2500 (   311 PWs)   bands (ev):

    -6.3575   1.7035   4.6970   4.6970

          k =-0.2500-0.2500-0.2500 (   311 PWs)   bands (ev):

    -6.3575   1.7035   4.6970   4.6970

          k =-0.2500 0.2500-0.2500 (   311 PWs)   bands (ev):

    -6.3575   1.7035   4.6970   4.6970

          k = 0.2500 0.2500-0.2500 (   311 PWs)   bands (ev):

    -6.3575   1.7035   4.6970   4.6970

          k = 0.2500 0.7500-0.2500 (   311 PWs)   bands (ev):

    -5.1819  -0.0415   2.3125   3.5086

          k =-0.2500-0.2500 0.7500 (   311 PWs)   bands (ev):

    -5.1819  -0.0415   2.3125   3.5086

          k =-0.2500 0.2500 0.7500 (   311 PWs)   bands (ev):

    -5.1819  -0.0415   2.3125   3.5086

          k =-0.2500-0.7500 0.2500 (   311 PWs)   bands (ev):

    -5.1819  -0.0415   2.3125   3.5086

          k =-0.2500-0.2500 0.2500 (   311 PWs)   bands (ev):

    -6.3575   1.7035   4.6970   4.6970

          k =-0.2500 0.7500-0.2500 (   311 PWs)   bands (ev):

    -5.1819  -0.0415   2.3125   3.5086

          k =-0.2500 1.2500-0.2500 (   311 PWs)   bands (ev):

    -5.1819  -0.0415   2.3125   3.5086

          k =-0.2500-0.2500-0.7500 (   311 PWs)   bands (ev):

    -5.1819  -0.0415   2.3125   3.5086

          k =-0.2500 0.2500-0.7500 (   311 PWs)   bands (ev):

    -5.1819  -0.0415   2.3125   3.5086

          k = 0.2500 0.2500-0.7500 (   311 PWs)   bands (ev):

    -5.1819  -0.0415   2.3125   3.5086

          k = 0.2500 0.7500-0.7500 (   311 PWs)   bands (ev):

    -5.1819  -0.0415   2.3125   3.5086

          k =-0.2500 0.7500 0.2500 (   311 PWs)   bands (ev):

    -5.1819  -0.0415   2.3125   3.5086

          k =-0.2500 1.2500 0.2500 (   311 PWs)   bands (ev):

    -5.1819  -0.0415   2.3125   3.5086

          k =-0.2500-0.7500-0.2500 (   311 PWs)   bands (ev):

    -5.1819  -0.0415   2.3125   3.5086

          k =-0.2500-0.2500-0.2500 (   311 PWs)   bands (ev):

    -6.3575   1.7035   4.6970   4.6970

     highest occupied level (ev):     4.6970

     Writing output data file alas.save

                                                                                

     bravais-lattice index     =            2
     lattice parameter (alat)  =      10.5000  a.u.
     unit-cell volume          =     289.4062 (a.u.)^3
     number of atoms/cell      =            2
     number of atomic types    =            2
     kinetic-energy cut-off    =      16.0000  Ry
     charge density cut-off    =      64.0000  Ry
     convergence threshold     =      1.0E-12
     beta                      =       0.7000
     number of iterations used =            4
     Exchange-correlation      =  SLA  PZ   NOGX NOGC ( 1  1  0  0 0 0)


     celldm(1)=   10.50000  celldm(2)=    0.00000  celldm(3)=    0.00000
     celldm(4)=    0.00000  celldm(5)=    0.00000  celldm(6)=    0.00000

     crystal axes: (cart. coord. in units of alat)
               a(1) = ( -0.5000  0.0000  0.5000 )  
               a(2) = (  0.0000  0.5000  0.5000 )  
               a(3) = ( -0.5000  0.5000  0.0000 )  

     reciprocal axes: (cart. coord. in units 2 pi/alat)
               b(1) = ( -1.0000 -1.0000  1.0000 )  
               b(2) = (  1.0000  1.0000  1.0000 )  
               b(3) = ( -1.0000  1.0000 -1.0000 )  


     Atoms inside the unit cell: 

     Cartesian axes

     site n.  atom      mass           positions (alat units)
        1     Al  26.9800   tau(    1) = (    0.00000    0.00000    0.00000  )
        2     As  74.9200   tau(    2) = (    0.25000    0.25000    0.25000  )

     Computing dynamical matrix for 
                    q = (   0.0000000   0.5000000   0.0000000 )
 
      4 Sym.Ops. (no q -> -q+G )


     G cutoff =  178.7306  (   1224 G-vectors)     FFT grid: ( 20, 20, 20)
     number of k points=    24

     PseudoPot. # 1 for Al read from file:
     /home/nvarini/espresso_hdf5/espresso/pseudo/Al.pz-vbc.UPF
     MD5 check sum: 614279c88ff8d45c90147292d03ed420
     Pseudo is Norm-conserving, Zval =  3.0
     Generated by new atomic code, or converted to UPF format
     Using radial grid of  171 points,  2 beta functions with: 
                l(1) =   0
                l(2) =   1

     PseudoPot. # 2 for As read from file:
     /home/nvarini/espresso_hdf5/espresso/pseudo/As.pz-bhs.UPF
     MD5 check sum: 451cd3365afcfc94d28b1934951c34a8
     Pseudo is Norm-conserving, Zval =  5.0
     Generated by new atomic code, or converted to UPF format
     Using radial grid of  525 points,  2 beta functions with: 
                l(1) =   0
                l(2) =   1

     Mode symmetry, C_2v (mm2)  point group:


     Atomic displacements:
     There are   6 irreducible representations

     Representation     1      1 modes -A_1  D_1  S_1  To be done

     Representation     2      1 modes -A_1  D_1  S_1  To be done

     Representation     3      1 modes -B_1  D_3  S_3  To be done

     Representation     4      1 modes -B_1  D_3  S_3  To be done

     Representation     5      1 modes -B_2  D_4  S_4  To be done

     Representation     6      1 modes -B_2  D_4  S_4  To be done



     Alpha used in Ewald sum =   0.7000
     PHONON       :     5.28s CPU         5.55s WALL



     Representation #  1 mode #   1

     Self-consistent Calculation

      iter #   1 total cpu time :     5.6 secs   av.it.:   6.5
      thresh= 1.000E-02 alpha_mix =  0.700 |ddv_scf|^2 =  1.919E-03

      iter #   2 total cpu time :     5.7 secs   av.it.:   8.0
      thresh= 4.381E-03 alpha_mix =  0.700 |ddv_scf|^2 =  1.597E-02

      iter #   3 total cpu time :     5.8 secs   av.it.:   7.2
      thresh= 1.000E-02 alpha_mix =  0.700 |ddv_scf|^2 =  2.115E-06

      iter #   4 total cpu time :     5.8 secs   av.it.:   8.2
      thresh= 1.454E-04 alpha_mix =  0.700 |ddv_scf|^2 =  2.570E-08

      iter #   5 total cpu time :     5.9 secs   av.it.:   8.8
      thresh= 1.603E-05 alpha_mix =  0.700 |ddv_scf|^2 =  1.109E-10

      iter #   6 total cpu time :     6.0 secs   av.it.:   8.2
      thresh= 1.053E-06 alpha_mix =  0.700 |ddv_scf|^2 =  2.941E-10

      iter #   7 total cpu time :     6.1 secs   av.it.:   7.0
      thresh= 1.715E-06 alpha_mix =  0.700 |ddv_scf|^2 =  2.325E-11

      iter #   8 total cpu time :     6.1 secs   av.it.:   7.2
      thresh= 4.821E-07 alpha_mix =  0.700 |ddv_scf|^2 =  2.932E-15

     End of self-consistent calculation

     Convergence has been achieved 


     Representation #  2 mode #   2

     Self-consistent Calculation

      iter #   1 total cpu time :     6.2 secs   av.it.:   5.7
      thresh= 1.000E-02 alpha_mix =  0.700 |ddv_scf|^2 =  3.751E-04

      iter #   2 total cpu time :     6.3 secs   av.it.:   7.9
      thresh= 1.937E-03 alpha_mix =  0.700 |ddv_scf|^2 =  2.909E-03

      iter #   3 total cpu time :     6.4 secs   av.it.:   6.7
      thresh= 5.393E-03 alpha_mix =  0.700 |ddv_scf|^2 =  5.677E-07

      iter #   4 total cpu time :     6.4 secs   av.it.:   7.8
      thresh= 7.534E-05 alpha_mix =  0.700 |ddv_scf|^2 =  5.677E-09

      iter #   5 total cpu time :     6.5 secs   av.it.:   8.8
      thresh= 7.535E-06 alpha_mix =  0.700 |ddv_scf|^2 =  8.374E-11

      iter #   6 total cpu time :     6.6 secs   av.it.:   8.2
      thresh= 9.151E-07 alpha_mix =  0.700 |ddv_scf|^2 =  2.980E-10

      iter #   7 total cpu time :     6.7 secs   av.it.:   7.2
      thresh= 1.726E-06 alpha_mix =  0.700 |ddv_scf|^2 =  1.268E-11

      iter #   8 total cpu time :     6.7 secs   av.it.:   7.3
      thresh= 3.560E-07 alpha_mix =  0.700 |ddv_scf|^2 =  2.072E-14

     End of self-consistent calculation

     Convergence has been achieved 


     Representation #  3 mode #   3

     Self-consistent Calculation

      iter #   1 total cpu time :     6.8 secs   av.it.:   4.9
      thresh= 1.000E-02 alpha_mix =  0.700 |ddv_scf|^2 =  1.095E-06

      iter #   2 total cpu time :     6.9 secs   av.it.:   8.4
      thresh= 1.046E-04 alpha_mix =  0.700 |ddv_scf|^2 =  1.263E-07

      iter #   3 total cpu time :     7.0 secs   av.it.:   8.2
      thresh= 3.555E-05 alpha_mix =  0.700 |ddv_scf|^2 =  6.588E-10

      iter #   4 total cpu time :     7.0 secs   av.it.:   8.0
      thresh= 2.567E-06 alpha_mix =  0.700 |ddv_scf|^2 =  2.110E-11

      iter #   5 total cpu time :     7.1 secs   av.it.:   7.8
      thresh= 4.593E-07 alpha_mix =  0.700 |ddv_scf|^2 =  3.751E-15

     End of self-consistent calculation

     Convergence has been achieved 


     Representation #  4 mode #   4

     Self-consistent Calculation

      iter #   1 total cpu time :     7.2 secs   av.it.:   5.8
      thresh= 1.000E-02 alpha_mix =  0.700 |ddv_scf|^2 =  8.767E-06

      iter #   2 total cpu time :     7.3 secs   av.it.:   8.3
      thresh= 2.961E-04 alpha_mix =  0.700 |ddv_scf|^2 =  1.180E-06

      iter #   3 total cpu time :     7.3 secs   av.it.:   8.1
      thresh= 1.086E-04 alpha_mix =  0.700 |ddv_scf|^2 =  3.847E-10

     Maximum CPU time exceeded

     max_seconds     =       7.00
     elapsed seconds =       7.00
 
     PHONON       :     7.01s CPU         7.34s WALL

     INITIALIZATION: 
     phq_setup    :      0.02s CPU      0.02s WALL (       4 calls)
     phq_init     :      0.07s CPU      0.07s WALL (       4 calls)
 
     phq_init     :      0.07s CPU      0.07s WALL (       4 calls)
     init_vloc    :      0.00s CPU      0.00s WALL (       4 calls)
     init_us_1    :      0.03s CPU      0.03s WALL (       4 calls)
 
     DYNAMICAL MATRIX:
     dynmat0      :      0.02s CPU      0.02s WALL (       4 calls)
     phqscf       :      5.46s CPU      5.71s WALL (       4 calls)
     dynmatrix    :      0.01s CPU      0.01s WALL (       3 calls)
 
     phqscf       :      5.46s CPU      5.71s WALL (       5 calls)
     solve_linter :      5.41s CPU      5.65s WALL (      14 calls)
     drhodv       :      0.02s CPU      0.02s WALL (      13 calls)
 
     dynmat0      :      0.02s CPU      0.02s WALL (       4 calls)
     dynmat_us    :      0.02s CPU      0.02s WALL (       4 calls)
     d2ionq       :      0.00s CPU      0.00s WALL (       4 calls)
 
     dynmat_us    :      0.02s CPU      0.02s WALL (       4 calls)
 
     phqscf       :      5.46s CPU      5.71s WALL (       6 calls)
     solve_linter :      5.41s CPU      5.65s WALL (      15 calls)
 
     solve_linter :      5.41s CPU      5.65s WALL (      16 calls)
     dvqpsi_us    :      0.09s CPU      0.09s WALL (     162 calls)
     ortho        :      0.03s CPU      0.03s WALL (     898 calls)
     cgsolve      :      3.71s CPU      3.86s WALL (     898 calls)
     incdrhoscf   :      0.42s CPU      0.43s WALL (     892 calls)
     vpsifft      :      0.30s CPU      0.31s WALL (     712 calls)
     dv_of_drho   :      0.03s CPU      0.03s WALL (     134 calls)
     mix_pot      :      0.06s CPU      0.06s WALL (      87 calls)
     psymdvscf    :      0.42s CPU      0.43s WALL (      82 calls)
 
     dvqpsi_us    :      0.09s CPU      0.09s WALL (     162 calls)
     dvqpsi_us_on :      0.01s CPU      0.01s WALL (     162 calls)
 
     cgsolve      :      3.71s CPU      3.86s WALL (     898 calls)
     ch_psi       :      3.56s CPU      3.71s WALL (    8403 calls)
 
     ch_psi       :      3.56s CPU      3.71s WALL (    8403 calls)
     last         :      0.28s CPU      0.29s WALL (    8403 calls)
 
     add_vuspsi   :      0.09s CPU      0.10s WALL (    9127 calls)
 
     incdrhoscf   :      0.42s CPU      0.43s WALL (     892 calls)
 
 
      General routines
     calbec       :      0.29s CPU      0.29s WALL (   18378 calls)
     fft          :      0.03s CPU      0.03s WALL (     418 calls)
     ffts         :      0.02s CPU      0.02s WALL (     240 calls)
     fftw         :      3.55s CPU      3.61s WALL (   79262 calls)
     davcio       :      0.04s CPU      0.07s WALL (    3372 calls)
     write_rec    :      0.13s CPU      0.15s WALL (     100 calls)
 
 
     PHONON       :     7.01s CPU         7.34s WALL

 
   This run was terminated on:  16:16:17  23Aug2016            

=------------------------------------------------------------------------------=
   JOB DONE.
=------------------------------------------------------------------------------=
