
     Program PWSCF v.5.4.0 (svn rev. 12782M) starts on 18Aug2016 at 16:27:48 

     This program is part of the open-source Quantum ESPRESSO suite
     for quantum simulation of materials; please cite
         "P. Giannozzi et al., J. Phys.:Condens. Matter 21 395502 (2009);
          URL http://www.quantum-espresso.org", 
     in publications or presentations arising from this work. More details at
     http://www.quantum-espresso.org/quote
 
           HOST :    x86_64-pc-linux-gnu
           ARCH :    x86_64
             CC :    icc
            CPP :    cpp
            F90 :    ifort
            F77 :    ifort
         DFLAGS :    -D__INTEL -D__FFTW -D__MPI -D__PARA -D__HDF5
      BLAS LIBS :    -lmkl_intel_lp64  -lmkl_sequential -lmkl_core
    LAPACK LIBS :    
       FFT LIBS :    
      MASS LIBS :    

     Parallel version (MPI), running on     2 processors
     R & G space division:  proc/nbgrp/npool/nimage =       2
     Waiting for input...
     Reading input from standard input

     Current dimensions of program PWSCF are:
     Max number of different atomic species (ntypx) = 10
     Max number of k-points (npk) =  40000
     Max angular momentum in pseudopotentials (lmaxx) =  3
               file Ni.pbe-nd-rrkjus.UPF: wavefunction(s)  4S renormalized

     Subspace diagonalization in iterative solution of the eigenvalue problem:
     a serial algorithm will be used

 
     Parallelization info
     --------------------
     sticks:   dense  smooth     PW     G-vecs:    dense   smooth      PW
     Min         225      81     30                 3210      705     165
     Max         226      82     31                 3213      706     166
     Sum         451     163     61                 6423     1411     331
 


     bravais-lattice index     =            2
     lattice parameter (alat)  =       6.6500  a.u.
     unit-cell volume          =      73.5199 (a.u.)^3
     number of atoms/cell      =            1
     number of atomic types    =            1
     number of electrons       =        10.00
     number of Kohn-Sham states=            9
     kinetic-energy cutoff     =      27.0000  Ry
     charge density cutoff     =     300.0000  Ry
     convergence threshold     =      1.0E-08
     mixing beta               =       0.7000
     number of iterations used =            8  plain     mixing
     Exchange-correlation      =  SLA  PW   PBE  PBE ( 1  4  3  4 0 0)

     celldm(1)=   6.650000  celldm(2)=   0.000000  celldm(3)=   0.000000
     celldm(4)=   0.000000  celldm(5)=   0.000000  celldm(6)=   0.000000

     crystal axes: (cart. coord. in units of alat)
               a(1) = (  -0.500000   0.000000   0.500000 )  
               a(2) = (   0.000000   0.500000   0.500000 )  
               a(3) = (  -0.500000   0.500000   0.000000 )  

     reciprocal axes: (cart. coord. in units 2 pi/alat)
               b(1) = ( -1.000000 -1.000000  1.000000 )  
               b(2) = (  1.000000  1.000000  1.000000 )  
               b(3) = ( -1.000000  1.000000 -1.000000 )  


     PseudoPot. # 1 for Ni read from file:
     /home/nvarini/espresso_hdf5/espresso/pseudo/Ni.pbe-nd-rrkjus.UPF
     MD5 check sum: 8081f0a005c9a5470caab1a58e82ecb2
     Pseudo is Ultrasoft + core correction, Zval = 10.0
     Generated by new atomic code, or converted to UPF format
     Using radial grid of 1203 points,  6 beta functions with: 
                l(1) =   0
                l(2) =   0
                l(3) =   1
                l(4) =   1
                l(5) =   2
                l(6) =   2
     Q(r) pseudized with 0 coefficients 


     atomic species   valence    mass     pseudopotential
        Ni            10.00    58.69340     Ni( 1.00)

     Starting magnetic structure 
     atomic species   magnetization
        Ni           0.500

     48 Sym. Ops., with inversion, found



   Cartesian axes

     site n.     atom                  positions (alat units)
         1           Ni  tau(   1) = (   0.0000000   0.0000000   0.0000000  )

     number of k points=    10  Methfessel-Paxton smearing, width (Ry)=  0.0200
                       cart. coord. in units 2pi/alat
        k(    1) = (  -0.1250000   0.1250000   0.1250000), wk =   0.0312500
        k(    2) = (  -0.3750000   0.3750000  -0.1250000), wk =   0.0937500
        k(    3) = (   0.3750000  -0.3750000   0.6250000), wk =   0.0937500
        k(    4) = (   0.1250000  -0.1250000   0.3750000), wk =   0.0937500
        k(    5) = (  -0.1250000   0.6250000   0.1250000), wk =   0.0937500
        k(    6) = (   0.6250000  -0.1250000   0.8750000), wk =   0.1875000
        k(    7) = (   0.3750000   0.1250000   0.6250000), wk =   0.1875000
        k(    8) = (  -0.1250000  -0.8750000   0.1250000), wk =   0.0937500
        k(    9) = (  -0.3750000   0.3750000   0.3750000), wk =   0.0312500
        k(   10) = (   0.3750000  -0.3750000   1.1250000), wk =   0.0937500

     Dense  grid:     6423 G-vectors     FFT dimensions: (  25,  25,  25)

     Smooth grid:     1411 G-vectors     FFT dimensions: (  15,  15,  15)

     Estimated max dynamical RAM per process >       3.53Mb

     Estimated total allocated dynamical RAM >       7.06Mb
     Generating pointlists ...
     new r_m :   0.2917 (alat units)  1.9397 (a.u.) for type    1

     Check: negative/imaginary core charge=   -0.000021    0.000000

     Initial potential from superposition of free atoms

     starting charge    9.99954, renormalised to   10.00000
     Starting wfc are    6 randomized atomic wfcs +    3 random wfc

     total cpu time spent up to now is        0.4 secs

     per-process dynamical memory:     7.1 Mb

     Self-consistent Calculation

     iteration #  1     ecut=    27.00 Ry     beta=0.70
     Davidson diagonalization with overlap
     ethr =  1.00E-02,  avg # of iterations =  4.4

     total cpu time spent up to now is        0.6 secs

     total energy              =     -85.61962413 Ry
     Harris-Foulkes estimate   =     -85.78376427 Ry
     estimated scf accuracy    <       0.59987052 Ry

     total magnetization       =     1.62 Bohr mag/cell
     absolute magnetization    =     1.64 Bohr mag/cell

     iteration #  2     ecut=    27.00 Ry     beta=0.70
     Davidson diagonalization with overlap
     ethr =  6.00E-03,  avg # of iterations =  2.0

     total cpu time spent up to now is        0.7 secs

     total energy              =     -85.74811494 Ry
     Harris-Foulkes estimate   =     -86.04376581 Ry
     estimated scf accuracy    <       0.80863241 Ry

     total magnetization       =     0.69 Bohr mag/cell
     absolute magnetization    =     0.75 Bohr mag/cell

     iteration #  3     ecut=    27.00 Ry     beta=0.70
     Davidson diagonalization with overlap
     ethr =  6.00E-03,  avg # of iterations =  1.1

     total cpu time spent up to now is        0.8 secs

     total energy              =     -85.88839484 Ry
     Harris-Foulkes estimate   =     -85.86946872 Ry
     estimated scf accuracy    <       0.02470368 Ry

     total magnetization       =     0.86 Bohr mag/cell
     absolute magnetization    =     1.01 Bohr mag/cell

     iteration #  4     ecut=    27.00 Ry     beta=0.70
     Davidson diagonalization with overlap
     ethr =  2.47E-04,  avg # of iterations =  1.3

     total cpu time spent up to now is        0.9 secs

     total energy              =     -85.89653579 Ry
     Harris-Foulkes estimate   =     -85.89641375 Ry
     estimated scf accuracy    <       0.00055183 Ry

     total magnetization       =     0.69 Bohr mag/cell
     absolute magnetization    =     0.82 Bohr mag/cell

     iteration #  5     ecut=    27.00 Ry     beta=0.70
     Davidson diagonalization with overlap
     ethr =  5.52E-06,  avg # of iterations =  2.0

     total cpu time spent up to now is        1.0 secs

     total energy              =     -85.89675421 Ry
     Harris-Foulkes estimate   =     -85.89670259 Ry
     estimated scf accuracy    <       0.00002077 Ry

     total magnetization       =     0.69 Bohr mag/cell
     absolute magnetization    =     0.80 Bohr mag/cell

     iteration #  6     ecut=    27.00 Ry     beta=0.70
     Davidson diagonalization with overlap
     ethr =  2.08E-07,  avg # of iterations =  1.9

     total cpu time spent up to now is        1.1 secs

     total energy              =     -85.89677463 Ry
     Harris-Foulkes estimate   =     -85.89677136 Ry
     estimated scf accuracy    <       0.00000529 Ry

     total magnetization       =     0.69 Bohr mag/cell
     absolute magnetization    =     0.79 Bohr mag/cell

     iteration #  7     ecut=    27.00 Ry     beta=0.70
     Davidson diagonalization with overlap
     ethr =  5.29E-08,  avg # of iterations =  1.4

     total cpu time spent up to now is        1.2 secs

     total energy              =     -85.89677682 Ry
     Harris-Foulkes estimate   =     -85.89677610 Ry
     estimated scf accuracy    <       0.00000112 Ry

     total magnetization       =     0.69 Bohr mag/cell
     absolute magnetization    =     0.79 Bohr mag/cell

     iteration #  8     ecut=    27.00 Ry     beta=0.70
     Davidson diagonalization with overlap
     ethr =  1.12E-08,  avg # of iterations =  1.5

     total cpu time spent up to now is        1.2 secs

     total energy              =     -85.89677696 Ry
     Harris-Foulkes estimate   =     -85.89677708 Ry
     estimated scf accuracy    <       0.00000005 Ry

     total magnetization       =     0.69 Bohr mag/cell
     absolute magnetization    =     0.79 Bohr mag/cell

     iteration #  9     ecut=    27.00 Ry     beta=0.70
     Davidson diagonalization with overlap
     ethr =  5.28E-10,  avg # of iterations =  2.0

     total cpu time spent up to now is        1.4 secs

     total energy              =     -85.89677712 Ry
     Harris-Foulkes estimate   =     -85.89677700 Ry
     estimated scf accuracy    <       0.00000023 Ry

     total magnetization       =     0.69 Bohr mag/cell
     absolute magnetization    =     0.79 Bohr mag/cell

     iteration # 10     ecut=    27.00 Ry     beta=0.70
     Davidson diagonalization with overlap
     ethr =  5.28E-10,  avg # of iterations =  1.5
 
     Magnetic moment per site:
     atom:    1    charge:    8.7384    magn:    0.7327    constr:    0.0000

     total cpu time spent up to now is        1.5 secs

     End of self-consistent calculation

 ------ SPIN UP ------------


          k =-0.1250 0.1250 0.1250 (   172 PWs)   bands (ev):

     5.8690  11.5857  11.8442  11.8442  12.8764  12.8764  35.2153  39.1148
    41.0571

          k =-0.3750 0.3750-0.1250 (   171 PWs)   bands (ev):

     8.5759  11.2601  11.8469  12.1419  12.7662  13.6865  27.1065  32.6467
    39.6745

          k = 0.3750-0.3750 0.6250 (   172 PWs)   bands (ev):

     9.6697  11.5291  11.9959  12.2057  13.5681  15.4904  20.5036  33.7470
    36.0291

          k = 0.1250-0.1250 0.3750 (   169 PWs)   bands (ev):

     7.3627  11.1869  12.0401  12.1503  12.7072  13.1520  31.2712  36.2547
    36.8251

          k =-0.1250 0.6250 0.1250 (   178 PWs)   bands (ev):

     9.3896  10.5907  12.0585  12.7238  13.4948  13.7972  28.1585  31.5088
    32.3302

          k = 0.6250-0.1250 0.8750 (   179 PWs)   bands (ev):

    10.3961  10.6508  11.6339  12.9293  13.5291  19.0429  22.3294  26.0131
    28.3126

          k = 0.3750 0.1250 0.6250 (   174 PWs)   bands (ev):

    10.0197  11.0648  11.4386  12.5042  13.2465  15.3181  24.0960  29.7576
    32.8994

          k =-0.1250-0.8750 0.1250 (   176 PWs)   bands (ev):

     9.7866  10.1743  12.8805  13.3184  13.6370  16.7911  24.9831  26.3767
    30.0888

          k =-0.3750 0.3750 0.3750 (   174 PWs)   bands (ev):

     9.0493  11.8385  11.8385  12.3404  13.3542  13.3542  23.0053  37.0639
    39.2802

          k = 0.3750-0.3750 1.1250 (   176 PWs)   bands (ev):

    10.3739  11.0274  11.5676  12.5158  13.2826  17.7601  21.2403  27.2398
    34.3339

 ------ SPIN DOWN ----------


          k =-0.1250 0.1250 0.1250 (   172 PWs)   bands (ev):

     5.8246  12.4414  12.7266  12.7266  13.5943  13.5943  35.2396  38.9857
    41.0915

          k =-0.3750 0.3750-0.1250 (   171 PWs)   bands (ev):

     8.6215  11.9889  12.5911  12.9254  13.5913  14.4942  27.2784  32.7147
    39.6090

          k = 0.3750-0.3750 0.6250 (   172 PWs)   bands (ev):

    10.1807  12.1362  12.7457  12.7903  14.4653  15.8885  20.9015  33.7529
    36.0976

          k = 0.1250-0.1250 0.3750 (   169 PWs)   bands (ev):

     7.3338  11.9948  12.8315  13.0158  13.4830  13.9136  31.3759  36.3335
    36.7660

          k =-0.1250 0.6250 0.1250 (   178 PWs)   bands (ev):

     9.5394  11.3395  12.7031  13.5715  14.3252  14.5127  28.2786  31.5784
    32.3844

          k = 0.6250-0.1250 0.8750 (   179 PWs)   bands (ev):

    10.8788  11.3192  12.3414  13.6405  14.5087  19.3202  22.5345  26.1701
    28.4086

          k = 0.3750 0.1250 0.6250 (   174 PWs)   bands (ev):

    10.3484  11.6737  12.1542  13.2530  14.1294  15.9156  24.3089  29.8493
    32.9696

          k =-0.1250-0.8750 0.1250 (   176 PWs)   bands (ev):

    10.2064  10.8927  13.6497  14.1046  14.5799  17.0376  25.1827  26.4724
    30.1027

          k =-0.3750 0.3750 0.3750 (   174 PWs)   bands (ev):

     9.3301  12.5971  12.5971  12.6755  14.2217  14.2217  23.2884  36.9018
    39.3685

          k = 0.3750-0.3750 1.1250 (   176 PWs)   bands (ev):

    10.9676  11.5078  12.2770  13.2421  14.2140  18.1049  21.5392  27.3702
    34.3961

     the Fermi energy is    14.2797 ev

!    total energy              =     -85.89677714 Ry
     Harris-Foulkes estimate   =     -85.89677714 Ry
     estimated scf accuracy    <          4.8E-09 Ry

     The total energy is the sum of the following terms:

     one-electron contribution =      -2.06731178 Ry
     hartree contribution      =      15.23696857 Ry
     xc contribution           =     -30.12090251 Ry
     ewald contribution        =     -68.94529435 Ry
     smearing contrib. (-TS)   =      -0.00023709 Ry

     total magnetization       =     0.69 Bohr mag/cell
     absolute magnetization    =     0.79 Bohr mag/cell

     convergence has been achieved in  10 iterations

     Forces acting on atoms (Ry/au):

     atom    1 type  1   force =     0.00000000    0.00000000    0.00000000

     Total force =     0.000000     Total SCF correction =     0.000000

     Writing output data file nickel.save
 
     init_run     :      0.36s CPU      0.37s WALL (       1 calls)
     electrons    :      0.98s CPU      1.03s WALL (       1 calls)
     forces       :      0.03s CPU      0.03s WALL (       1 calls)

     Called by init_run:
     wfcinit      :      0.01s CPU      0.02s WALL (       1 calls)
     potinit      :      0.02s CPU      0.02s WALL (       1 calls)

     Called by electrons:
     c_bands      :      0.50s CPU      0.53s WALL (      10 calls)
     sum_band     :      0.28s CPU      0.28s WALL (      10 calls)
     v_of_rho     :      0.14s CPU      0.15s WALL (      11 calls)
     newd         :      0.07s CPU      0.07s WALL (      11 calls)
     mix_rho      :      0.01s CPU      0.01s WALL (      10 calls)

     Called by c_bands:
     init_us_2    :      0.01s CPU      0.02s WALL (     440 calls)
     cegterg      :      0.45s CPU      0.48s WALL (     200 calls)

     Called by sum_band:
     sum_band:bec :      0.00s CPU      0.00s WALL (     200 calls)
     addusdens    :      0.17s CPU      0.17s WALL (      10 calls)

     Called by *egterg:
     h_psi        :      0.28s CPU      0.32s WALL (     604 calls)
     s_psi        :      0.01s CPU      0.01s WALL (     604 calls)
     g_psi        :      0.00s CPU      0.00s WALL (     384 calls)
     cdiaghg      :      0.13s CPU      0.11s WALL (     584 calls)

     Called by h_psi:
     h_psi:pot    :      0.28s CPU      0.32s WALL (     604 calls)
     h_psi:calbec :      0.02s CPU      0.02s WALL (     604 calls)
     add_vuspsi   :      0.01s CPU      0.01s WALL (     604 calls)

     General routines
     calbec       :      0.03s CPU      0.02s WALL (     884 calls)
     fft          :      0.05s CPU      0.06s WALL (     350 calls)
     ffts         :      0.00s CPU      0.00s WALL (      42 calls)
     fftw         :      0.26s CPU      0.29s WALL (   10526 calls)
     interpolate  :      0.01s CPU      0.01s WALL (      42 calls)
 
     Parallel routines
     fft_scatter  :      0.10s CPU      0.10s WALL (   10918 calls)
 
     PWSCF        :     1.50s CPU         1.59s WALL

 
   This run was terminated on:  16:27:50  18Aug2016            

=------------------------------------------------------------------------------=
   JOB DONE.
=------------------------------------------------------------------------------=
