
     Program PHONON v.5.4.0 (svn rev. 12590M) starts on 21Jul2016 at 16: 7:23 

     This program is part of the open-source Quantum ESPRESSO suite
     for quantum simulation of materials; please cite
         "P. Giannozzi et al., J. Phys.:Condens. Matter 21 395502 (2009);
          URL http://www.quantum-espresso.org", 
     in publications or presentations arising from this work. More details at
     http://www.quantum-espresso.org/quote
 
           HOST :    x86_64-pc-linux-gnu
           ARCH :    x86_64
             CC :    icc
            CPP :    cpp
            F90 :    gfortran
            F77 :    gfortran
         DFLAGS :    -D__GFORTRAN -D__STD_F95 -D__DFTI -D__MPI -D__PARA -D__HDF5
      BLAS LIBS :    -lmkl_gf_lp64  -lmkl_sequential -lmkl_core
    LAPACK LIBS :    
       FFT LIBS :    
      MASS LIBS :    

     Parallel version (MPI), running on     2 processors
     R & G space division:  proc/nbgrp/npool/nimage =       2

     Reading data from directory:
     /home/nvarini/espresso_hdf5/espresso/tempdir/silicon.save

   Info: using nr1, nr2, nr3 values from input

   Info: using nr1, nr2, nr3 values from input

     IMPORTANT: XC functional enforced from input :
     Exchange-correlation      =  SLA  PZ   NOGX NOGC ( 1  1  0  0 0 0)
     Any further DFT definition will be discarded
     Please, verify this is what you really want

 
     Parallelization info
     --------------------
     sticks:   dense  smooth     PW     G-vecs:    dense   smooth      PW
     Min         174     174     60                 2139     2139     434
     Max         175     175     61                 2140     2140     435
     Sum         349     349    121                 4279     4279     869
 

     Calculation of q =    0.0000000   0.0000000   1.0000000
 
     Parallelization info
     --------------------
     sticks:   dense  smooth     PW     G-vecs:    dense   smooth      PW
     Min         174     174     69                 2139     2139     533
     Max         175     175     70                 2140     2140     534
     Sum         349     349    139                 4279     4279    1067
 


     bravais-lattice index     =            2
     lattice parameter (alat)  =      10.2000  a.u.
     unit-cell volume          =     265.3020 (a.u.)^3
     number of atoms/cell      =            2
     number of atomic types    =            1
     number of electrons       =         8.00
     number of Kohn-Sham states=            4
     kinetic-energy cutoff     =      24.0000  Ry
     charge density cutoff     =      96.0000  Ry
     Exchange-correlation      =  SLA  PZ   NOGX NOGC ( 1  1  0  0 0 0)

     celldm(1)=  10.200000  celldm(2)=   0.000000  celldm(3)=   0.000000
     celldm(4)=   0.000000  celldm(5)=   0.000000  celldm(6)=   0.000000

     crystal axes: (cart. coord. in units of alat)
               a(1) = (  -0.500000   0.000000   0.500000 )  
               a(2) = (   0.000000   0.500000   0.500000 )  
               a(3) = (  -0.500000   0.500000   0.000000 )  

     reciprocal axes: (cart. coord. in units 2 pi/alat)
               b(1) = ( -1.000000 -1.000000  1.000000 )  
               b(2) = (  1.000000  1.000000  1.000000 )  
               b(3) = ( -1.000000  1.000000 -1.000000 )  


     PseudoPot. # 1 for Si read from file:
     /home/nvarini/espresso_hdf5/espresso/pseudo/Si.pz-vbc.UPF
     MD5 check sum: 6dfa03ddd5817404712e03e4d12deb78
     Pseudo is Norm-conserving, Zval =  4.0
     Generated by new atomic code, or converted to UPF format
     Using radial grid of  431 points,  2 beta functions with: 
                l(1) =   0
                l(2) =   1

     atomic species   valence    mass     pseudopotential
        Si             4.00    28.08550     Si( 1.00)

     48 Sym. Ops., with inversion, found



   Cartesian axes

     site n.     atom                  positions (alat units)
         1           Si  tau(   1) = (   0.0000000   0.0000000   0.0000000  )
         2           Si  tau(   2) = (   0.2500000   0.2500000   0.2500000  )

     number of k points=    40
                       cart. coord. in units 2pi/alat
        k(    1) = (  -0.1250000   0.1250000   0.1250000), wk =   0.0625000
        k(    2) = (  -0.1250000   0.1250000   1.1250000), wk =   0.0000000
        k(    3) = (  -0.3750000   0.3750000  -0.1250000), wk =   0.0625000
        k(    4) = (  -0.3750000   0.3750000   0.8750000), wk =   0.0000000
        k(    5) = (   0.3750000  -0.3750000   0.6250000), wk =   0.0625000
        k(    6) = (   0.3750000  -0.3750000   1.6250000), wk =   0.0000000
        k(    7) = (   0.1250000  -0.1250000   0.3750000), wk =   0.0625000
        k(    8) = (   0.1250000  -0.1250000   1.3750000), wk =   0.0000000
        k(    9) = (  -0.1250000   0.6250000   0.1250000), wk =   0.1250000
        k(   10) = (  -0.1250000   0.6250000   1.1250000), wk =   0.0000000
        k(   11) = (   0.6250000  -0.1250000   0.8750000), wk =   0.1250000
        k(   12) = (   0.6250000  -0.1250000   1.8750000), wk =   0.0000000
        k(   13) = (   0.3750000   0.1250000   0.6250000), wk =   0.1250000
        k(   14) = (   0.3750000   0.1250000   1.6250000), wk =   0.0000000
        k(   15) = (  -0.1250000  -0.8750000   0.1250000), wk =   0.1250000
        k(   16) = (  -0.1250000  -0.8750000   1.1250000), wk =   0.0000000
        k(   17) = (  -0.3750000   0.3750000   0.3750000), wk =   0.0625000
        k(   18) = (  -0.3750000   0.3750000   1.3750000), wk =   0.0000000
        k(   19) = (   0.3750000  -0.3750000   1.1250000), wk =   0.0625000
        k(   20) = (   0.3750000  -0.3750000   2.1250000), wk =   0.0000000
        k(   21) = (   0.3750000  -0.1250000  -0.3750000), wk =   0.1250000
        k(   22) = (   0.3750000  -0.1250000   0.6250000), wk =   0.0000000
        k(   23) = (  -0.3750000   0.6250000   0.3750000), wk =   0.1250000
        k(   24) = (  -0.3750000   0.6250000   1.3750000), wk =   0.0000000
        k(   25) = (  -0.1250000   0.3750000   0.1250000), wk =   0.1250000
        k(   26) = (  -0.1250000   0.3750000   1.1250000), wk =   0.0000000
        k(   27) = (   0.1250000  -0.1250000   0.6250000), wk =   0.0625000
        k(   28) = (   0.1250000  -0.1250000   1.6250000), wk =   0.0000000
        k(   29) = (  -0.1250000   0.8750000   0.6250000), wk =   0.1250000
        k(   30) = (  -0.1250000   0.8750000   1.6250000), wk =   0.0000000
        k(   31) = (   0.8750000   0.6250000  -0.1250000), wk =   0.1250000
        k(   32) = (   0.8750000   0.6250000   0.8750000), wk =   0.0000000
        k(   33) = (   0.1250000   0.6250000   0.3750000), wk =   0.1250000
        k(   34) = (   0.1250000   0.6250000   1.3750000), wk =   0.0000000
        k(   35) = (   0.6250000   0.3750000   0.1250000), wk =   0.1250000
        k(   36) = (   0.6250000   0.3750000   1.1250000), wk =   0.0000000
        k(   37) = (   0.1250000  -0.1250000  -0.8750000), wk =   0.0625000
        k(   38) = (   0.1250000  -0.1250000   0.1250000), wk =   0.0000000
        k(   39) = (  -0.3750000   1.1250000   0.3750000), wk =   0.1250000
        k(   40) = (  -0.3750000   1.1250000   1.3750000), wk =   0.0000000

     Dense  grid:     4279 G-vectors     FFT dimensions: (  24,  24,  24)

     Largest allocated arrays     est. size (Mb)     dimensions
        Kohn-Sham Wavefunctions         0.02 Mb     (     275,    4)
        NL pseudopotentials             0.03 Mb     (     275,    8)
        Each V/rho on FFT grid          0.11 Mb     (    6912)
        Each G-vector array             0.02 Mb     (    2139)
        G-vector shells                 0.00 Mb     (      86)
     Largest temporary arrays     est. size (Mb)     dimensions
        Auxiliary wavefunctions         0.07 Mb     (     275,   16)
        Each subspace H/S matrix        0.00 Mb     (      16,   16)
        Each <psi_i|beta_j> matrix      0.00 Mb     (       8,    4)

     The potential is recalculated from file :
     /home/nvarini/espresso_hdf5/espresso/tempdir/_ph0/silicon.save/charge-density.hdf5

     Starting wfc are    8 atomic wfcs

     Band Structure Calculation
     Davidson diagonalization with overlap

     ethr =  1.25E-10,  avg # of iterations = 11.9

     total cpu time spent up to now is        0.6 secs

     End of band structure calculation

          k =-0.1250 0.1250 0.1250 (   534 PWs)   bands (ev):

    -5.6138   4.6326   5.9404   5.9404

          k =-0.1250 0.1250 1.1250 (   521 PWs)   bands (ev):

    -2.4719  -0.6037   2.7180   3.5015

          k =-0.3750 0.3750-0.1250 (   526 PWs)   bands (ev):

    -4.5483   1.5828   3.8822   5.4511

          k =-0.3750 0.3750 0.8750 (   526 PWs)   bands (ev):

    -2.8345  -0.4465   2.1552   4.3148

          k = 0.3750-0.3750 0.6250 (   530 PWs)   bands (ev):

    -3.3458  -0.5903   3.9246   4.6467

          k = 0.3750-0.3750 1.6250 (   528 PWs)   bands (ev):

    -4.0927   0.2251   5.1322   5.1322

          k = 0.1250-0.1250 0.3750 (   531 PWs)   bands (ev):

    -5.0672   3.0066   4.8907   4.9782

          k = 0.1250-0.1250 1.3750 (   528 PWs)   bands (ev):

    -3.9985   1.2999   3.5091   3.9849

          k =-0.1250 0.6250 0.1250 (   528 PWs)   bands (ev):

    -3.9985   1.2999   3.5091   3.9849

          k =-0.1250 0.6250 1.1250 (   522 PWs)   bands (ev):

    -2.2825  -0.7123   2.0738   3.2050

          k = 0.6250-0.1250 0.8750 (   522 PWs)   bands (ev):

    -2.2825  -0.7123   2.0738   3.2050

          k = 0.6250-0.1250 1.8750 (   528 PWs)   bands (ev):

    -3.9985   1.2999   3.5091   3.9849

          k = 0.3750 0.1250 0.6250 (   526 PWs)   bands (ev):

    -3.5604   0.3663   2.8491   4.2661

          k = 0.3750 0.1250 1.6250 (   526 PWs)   bands (ev):

    -4.5483   1.5828   3.8822   5.4511

          k =-0.1250-0.8750 0.1250 (   521 PWs)   bands (ev):

    -2.4719  -0.6037   2.7180   3.5015

          k =-0.1250-0.8750 1.1250 (   521 PWs)   bands (ev):

    -2.4719  -0.6037   2.7180   3.5015

          k =-0.3750 0.3750 0.3750 (   528 PWs)   bands (ev):

    -4.0927   0.2251   5.1322   5.1322

          k =-0.3750 0.3750 1.3750 (   530 PWs)   bands (ev):

    -3.3458  -0.5903   3.9246   4.6467

          k = 0.3750-0.3750 1.1250 (   526 PWs)   bands (ev):

    -2.8345  -0.4465   2.1552   4.3148

          k = 0.3750-0.3750 2.1250 (   526 PWs)   bands (ev):

    -4.5483   1.5828   3.8822   5.4511

          k = 0.3750-0.1250-0.3750 (   526 PWs)   bands (ev):

    -4.5483   1.5828   3.8822   5.4511

          k = 0.3750-0.1250 0.6250 (   526 PWs)   bands (ev):

    -3.5604   0.3663   2.8491   4.2661

          k =-0.3750 0.6250 0.3750 (   530 PWs)   bands (ev):

    -3.3458  -0.5903   3.9246   4.6467

          k =-0.3750 0.6250 1.3750 (   530 PWs)   bands (ev):

    -3.3458  -0.5903   3.9246   4.6467

          k =-0.1250 0.3750 0.1250 (   531 PWs)   bands (ev):

    -5.0672   3.0066   4.8907   4.9782

          k =-0.1250 0.3750 1.1250 (   522 PWs)   bands (ev):

    -2.2825  -0.7123   2.0738   3.2050

          k = 0.1250-0.1250 0.6250 (   528 PWs)   bands (ev):

    -3.9985   1.2999   3.5091   3.9849

          k = 0.1250-0.1250 1.6250 (   531 PWs)   bands (ev):

    -5.0672   3.0066   4.8907   4.9782

          k =-0.1250 0.8750 0.6250 (   522 PWs)   bands (ev):

    -2.2825  -0.7123   2.0738   3.2050

          k =-0.1250 0.8750 1.6250 (   522 PWs)   bands (ev):

    -2.2825  -0.7123   2.0738   3.2050

          k = 0.8750 0.6250-0.1250 (   522 PWs)   bands (ev):

    -2.2825  -0.7123   2.0738   3.2050

          k = 0.8750 0.6250 0.8750 (   531 PWs)   bands (ev):

    -5.0672   3.0066   4.8907   4.9782

          k = 0.1250 0.6250 0.3750 (   526 PWs)   bands (ev):

    -3.5604   0.3663   2.8491   4.2661

          k = 0.1250 0.6250 1.3750 (   526 PWs)   bands (ev):

    -2.8345  -0.4465   2.1552   4.3148

          k = 0.6250 0.3750 0.1250 (   526 PWs)   bands (ev):

    -3.5604   0.3663   2.8491   4.2661

          k = 0.6250 0.3750 1.1250 (   526 PWs)   bands (ev):

    -3.5604   0.3663   2.8491   4.2661

          k = 0.1250-0.1250-0.8750 (   521 PWs)   bands (ev):

    -2.4719  -0.6037   2.7180   3.5015

          k = 0.1250-0.1250 0.1250 (   534 PWs)   bands (ev):

    -5.6138   4.6326   5.9404   5.9404

          k =-0.3750 1.1250 0.3750 (   526 PWs)   bands (ev):

    -2.8345  -0.4465   2.1552   4.3148

          k =-0.3750 1.1250 1.3750 (   526 PWs)   bands (ev):

    -3.5604   0.3663   2.8491   4.2661

     highest occupied level (ev):     5.9404

     Writing output data file silicon.save

                                                                                

     bravais-lattice index     =            2
     lattice parameter (alat)  =      10.2000  a.u.
     unit-cell volume          =     265.3020 (a.u.)^3
     number of atoms/cell      =            2
     number of atomic types    =            1
     kinetic-energy cut-off    =      24.0000  Ry
     charge density cut-off    =      96.0000  Ry
     convergence threshold     =      1.0E-12
     beta                      =       0.7000
     number of iterations used =            4
     Exchange-correlation      =  SLA  PZ   NOGX NOGC ( 1  1  0  0 0 0)


     celldm(1)=   10.20000  celldm(2)=    0.00000  celldm(3)=    0.00000
     celldm(4)=    0.00000  celldm(5)=    0.00000  celldm(6)=    0.00000

     crystal axes: (cart. coord. in units of alat)
               a(1) = ( -0.5000  0.0000  0.5000 )  
               a(2) = (  0.0000  0.5000  0.5000 )  
               a(3) = ( -0.5000  0.5000  0.0000 )  

     reciprocal axes: (cart. coord. in units 2 pi/alat)
               b(1) = ( -1.0000 -1.0000  1.0000 )  
               b(2) = (  1.0000  1.0000  1.0000 )  
               b(3) = ( -1.0000  1.0000 -1.0000 )  


     Atoms inside the unit cell: 

     Cartesian axes

     site n.  atom      mass           positions (alat units)
        1     Si  28.0855   tau(    1) = (    0.00000    0.00000    0.00000  )
        2     Si  28.0855   tau(    2) = (    0.25000    0.25000    0.25000  )

     Computing dynamical matrix for 
                    q = (   0.0000000   0.0000000   1.0000000 )
 
     17 Sym.Ops. (with q -> -q+G )


     G cutoff =  252.9949  (   2139 G-vectors)     FFT grid: ( 24, 24, 24)
     number of k points=    40
                       cart. coord. in units 2pi/alat
        k(    1) = (  -0.1250000   0.1250000   0.1250000), wk =   0.0625000
        k(    2) = (  -0.1250000   0.1250000   1.1250000), wk =   0.0000000
        k(    3) = (  -0.3750000   0.3750000  -0.1250000), wk =   0.0625000
        k(    4) = (  -0.3750000   0.3750000   0.8750000), wk =   0.0000000
        k(    5) = (   0.3750000  -0.3750000   0.6250000), wk =   0.0625000
        k(    6) = (   0.3750000  -0.3750000   1.6250000), wk =   0.0000000
        k(    7) = (   0.1250000  -0.1250000   0.3750000), wk =   0.0625000
        k(    8) = (   0.1250000  -0.1250000   1.3750000), wk =   0.0000000
        k(    9) = (  -0.1250000   0.6250000   0.1250000), wk =   0.1250000
        k(   10) = (  -0.1250000   0.6250000   1.1250000), wk =   0.0000000
        k(   11) = (   0.6250000  -0.1250000   0.8750000), wk =   0.1250000
        k(   12) = (   0.6250000  -0.1250000   1.8750000), wk =   0.0000000
        k(   13) = (   0.3750000   0.1250000   0.6250000), wk =   0.1250000
        k(   14) = (   0.3750000   0.1250000   1.6250000), wk =   0.0000000
        k(   15) = (  -0.1250000  -0.8750000   0.1250000), wk =   0.1250000
        k(   16) = (  -0.1250000  -0.8750000   1.1250000), wk =   0.0000000
        k(   17) = (  -0.3750000   0.3750000   0.3750000), wk =   0.0625000
        k(   18) = (  -0.3750000   0.3750000   1.3750000), wk =   0.0000000
        k(   19) = (   0.3750000  -0.3750000   1.1250000), wk =   0.0625000
        k(   20) = (   0.3750000  -0.3750000   2.1250000), wk =   0.0000000
        k(   21) = (   0.3750000  -0.1250000  -0.3750000), wk =   0.1250000
        k(   22) = (   0.3750000  -0.1250000   0.6250000), wk =   0.0000000
        k(   23) = (  -0.3750000   0.6250000   0.3750000), wk =   0.1250000
        k(   24) = (  -0.3750000   0.6250000   1.3750000), wk =   0.0000000
        k(   25) = (  -0.1250000   0.3750000   0.1250000), wk =   0.1250000
        k(   26) = (  -0.1250000   0.3750000   1.1250000), wk =   0.0000000
        k(   27) = (   0.1250000  -0.1250000   0.6250000), wk =   0.0625000
        k(   28) = (   0.1250000  -0.1250000   1.6250000), wk =   0.0000000
        k(   29) = (  -0.1250000   0.8750000   0.6250000), wk =   0.1250000
        k(   30) = (  -0.1250000   0.8750000   1.6250000), wk =   0.0000000
        k(   31) = (   0.8750000   0.6250000  -0.1250000), wk =   0.1250000
        k(   32) = (   0.8750000   0.6250000   0.8750000), wk =   0.0000000
        k(   33) = (   0.1250000   0.6250000   0.3750000), wk =   0.1250000
        k(   34) = (   0.1250000   0.6250000   1.3750000), wk =   0.0000000
        k(   35) = (   0.6250000   0.3750000   0.1250000), wk =   0.1250000
        k(   36) = (   0.6250000   0.3750000   1.1250000), wk =   0.0000000
        k(   37) = (   0.1250000  -0.1250000  -0.8750000), wk =   0.0625000
        k(   38) = (   0.1250000  -0.1250000   0.1250000), wk =   0.0000000
        k(   39) = (  -0.3750000   1.1250000   0.3750000), wk =   0.1250000
        k(   40) = (  -0.3750000   1.1250000   1.3750000), wk =   0.0000000

     PseudoPot. # 1 for Si read from file:
     /home/nvarini/espresso_hdf5/espresso/pseudo/Si.pz-vbc.UPF
     MD5 check sum: 6dfa03ddd5817404712e03e4d12deb78
     Pseudo is Norm-conserving, Zval =  4.0
     Generated by new atomic code, or converted to UPF format
     Using radial grid of  431 points,  2 beta functions with: 
                l(1) =   0
                l(2) =   1


     Atomic displacements:
     There are   3 irreducible representations

     Representation     1      2 modes -  To be done

     Representation     2      2 modes -  To be done

     Representation     3      2 modes -  To be done



     Alpha used in Ewald sum =   1.0000
     PHONON       :     1.08s CPU         1.17s WALL



     Representation #  1 modes #   1  2

     Self-consistent Calculation

      iter #   1 total cpu time :     1.5 secs   av.it.:   5.7
      thresh= 1.000E-02 alpha_mix =  0.700 |ddv_scf|^2 =  1.082E-05

      iter #   2 total cpu time :     1.9 secs   av.it.:   9.7
      thresh= 3.290E-04 alpha_mix =  0.700 |ddv_scf|^2 =  1.482E-05

      iter #   3 total cpu time :     2.3 secs   av.it.:   8.8
      thresh= 3.849E-04 alpha_mix =  0.700 |ddv_scf|^2 =  2.976E-09

      iter #   4 total cpu time :     2.7 secs   av.it.:   9.5
      thresh= 5.456E-06 alpha_mix =  0.700 |ddv_scf|^2 =  4.935E-11

      iter #   5 total cpu time :     3.2 secs   av.it.:   9.2
      thresh= 7.025E-07 alpha_mix =  0.700 |ddv_scf|^2 =  1.376E-12

      iter #   6 total cpu time :     3.6 secs   av.it.:   9.0
      thresh= 1.173E-07 alpha_mix =  0.700 |ddv_scf|^2 =  4.754E-15

     End of self-consistent calculation

     Convergence has been achieved 


     Representation #  2 modes #   3  4

     Self-consistent Calculation

      iter #   1 total cpu time :     3.8 secs   av.it.:   4.1
      thresh= 1.000E-02 alpha_mix =  0.700 |ddv_scf|^2 =  7.569E-09

      iter #   2 total cpu time :     4.3 secs   av.it.:   9.5
      thresh= 8.700E-06 alpha_mix =  0.700 |ddv_scf|^2 =  3.879E-10

      iter #   3 total cpu time :     4.7 secs   av.it.:   8.9
      thresh= 1.970E-06 alpha_mix =  0.700 |ddv_scf|^2 =  1.288E-11

      iter #   4 total cpu time :     5.1 secs   av.it.:   8.8
      thresh= 3.590E-07 alpha_mix =  0.700 |ddv_scf|^2 =  1.463E-14

     End of self-consistent calculation

     Convergence has been achieved 


     Representation #  3 modes #   5  6

     Self-consistent Calculation

      iter #   1 total cpu time :     5.4 secs   av.it.:   5.6
      thresh= 1.000E-02 alpha_mix =  0.700 |ddv_scf|^2 =  2.273E-06

      iter #   2 total cpu time :     5.8 secs   av.it.:   9.8
      thresh= 1.508E-04 alpha_mix =  0.700 |ddv_scf|^2 =  6.357E-07

      iter #   3 total cpu time :     6.3 secs   av.it.:   9.3
      thresh= 7.973E-05 alpha_mix =  0.700 |ddv_scf|^2 =  1.241E-10

      iter #   4 total cpu time :     6.7 secs   av.it.:   9.1
      thresh= 1.114E-06 alpha_mix =  0.700 |ddv_scf|^2 =  1.013E-12

      iter #   5 total cpu time :     7.1 secs   av.it.:   9.2
      thresh= 1.006E-07 alpha_mix =  0.700 |ddv_scf|^2 =  2.959E-15

     End of self-consistent calculation

     Convergence has been achieved 
 
     Number of q in the star =    3
     List of q in the star:
          1   0.000000000   0.000000000   1.000000000
          2   0.000000000   1.000000000   0.000000000
          3   1.000000000   0.000000000   0.000000000

     Diagonalizing the dynamical matrix

     q = (    0.000000000   0.000000000   1.000000000 ) 

 **************************************************************************
     freq (    1) =       4.244962 [THz] =     141.596684 [cm-1]
     freq (    2) =       4.244962 [THz] =     141.596684 [cm-1]
     freq (    3) =      12.229491 [THz] =     407.931904 [cm-1]
     freq (    4) =      12.229491 [THz] =     407.931904 [cm-1]
     freq (    5) =      13.711501 [THz] =     457.366432 [cm-1]
     freq (    6) =      13.711501 [THz] =     457.366432 [cm-1]
 **************************************************************************
 
     init_run     :      0.02s CPU      0.06s WALL (       1 calls)
     electrons    :      0.49s CPU      0.52s WALL (       1 calls)

     Called by init_run:
     wfcinit      :      0.00s CPU      0.04s WALL (       1 calls)
     potinit      :      0.00s CPU      0.00s WALL (       1 calls)

     Called by electrons:
     c_bands      :      0.49s CPU      0.52s WALL (       1 calls)
     v_of_rho     :      0.00s CPU      0.00s WALL (       2 calls)

     Called by c_bands:
     init_us_2    :      0.01s CPU      0.02s WALL (     440 calls)
     cegterg      :      0.40s CPU      0.42s WALL (      40 calls)

     Called by sum_band:

     Called by *egterg:
     h_psi        :      4.02s CPU      4.16s WALL (    6311 calls)
     g_psi        :      0.00s CPU      0.01s WALL (     476 calls)
     cdiaghg      :      0.05s CPU      0.05s WALL (     516 calls)

     Called by h_psi:
     add_vuspsi   :      0.07s CPU      0.09s WALL (    6311 calls)

     General routines
     calbec       :      0.25s CPU      0.28s WALL (   12746 calls)
     fft          :      0.01s CPU      0.01s WALL (      97 calls)
     ffts         :      0.01s CPU      0.02s WALL (     138 calls)
     fftw         :      4.12s CPU      4.15s WALL (   55972 calls)
     davcio       :      0.03s CPU      0.05s WALL (    1950 calls)
 
     Parallel routines
     fft_scatter  :      1.08s CPU      1.14s WALL (   56207 calls)
 
     PHONON       :     6.82s CPU         7.11s WALL

     INITIALIZATION: 
     phq_setup    :      0.01s CPU      0.01s WALL (       1 calls)
     phq_init     :      0.04s CPU      0.04s WALL (       1 calls)
 
     phq_init     :      0.04s CPU      0.04s WALL (       1 calls)
     init_vloc    :      0.00s CPU      0.00s WALL (       2 calls)
     init_us_1    :      0.01s CPU      0.01s WALL (       2 calls)
 
     DYNAMICAL MATRIX:
     dynmat0      :      0.01s CPU      0.01s WALL (       1 calls)
     phqscf       :      5.73s CPU      5.93s WALL (       1 calls)
     dynmatrix    :      0.00s CPU      0.00s WALL (       1 calls)
 
     phqscf       :      5.73s CPU      5.93s WALL (       1 calls)
     solve_linter :      5.70s CPU      5.90s WALL (       3 calls)
     drhodv       :      0.02s CPU      0.02s WALL (       3 calls)
 
     dynmat0      :      0.01s CPU      0.01s WALL (       1 calls)
     dynmat_us    :      0.01s CPU      0.01s WALL (       1 calls)
     d2ionq       :      0.00s CPU      0.00s WALL (       1 calls)
 
     dynmat_us    :      0.01s CPU      0.01s WALL (       1 calls)
 
     phqscf       :      5.73s CPU      5.93s WALL (       1 calls)
     solve_linter :      5.70s CPU      5.90s WALL (       3 calls)
 
     solve_linter :      5.70s CPU      5.90s WALL (       3 calls)
     dvqpsi_us    :      0.11s CPU      0.11s WALL (     120 calls)
     ortho        :      0.02s CPU      0.02s WALL (     600 calls)
     cgsolve      :      4.15s CPU      4.28s WALL (     600 calls)
     incdrhoscf   :      0.47s CPU      0.48s WALL (     600 calls)
     vpsifft      :      0.34s CPU      0.35s WALL (     480 calls)
     dv_of_drho   :      0.01s CPU      0.01s WALL (      30 calls)
     mix_pot      :      0.02s CPU      0.02s WALL (      15 calls)
     psymdvscf    :      0.30s CPU      0.30s WALL (      15 calls)
 
     dvqpsi_us    :      0.11s CPU      0.11s WALL (     120 calls)
     dvqpsi_us_on :      0.01s CPU      0.01s WALL (     120 calls)
 
     cgsolve      :      4.15s CPU      4.28s WALL (     600 calls)
     ch_psi       :      4.01s CPU      4.14s WALL (    5755 calls)
 
     ch_psi       :      4.01s CPU      4.14s WALL (    5755 calls)
     last         :      0.30s CPU      0.29s WALL (    5755 calls)
 
     add_vuspsi   :      0.07s CPU      0.09s WALL (    6311 calls)
 
     incdrhoscf   :      0.47s CPU      0.48s WALL (     600 calls)
 
 
      General routines
     calbec       :      0.25s CPU      0.28s WALL (   12746 calls)
     fft          :      0.01s CPU      0.01s WALL (      97 calls)
     ffts         :      0.01s CPU      0.02s WALL (     138 calls)
     fftw         :      4.12s CPU      4.15s WALL (   55972 calls)
     davcio       :      0.03s CPU      0.05s WALL (    1950 calls)
     write_rec    :      0.02s CPU      0.03s WALL (      18 calls)
 
 
     PHONON       :     6.82s CPU         7.11s WALL

 
   This run was terminated on:  16: 7:30  21Jul2016            

=------------------------------------------------------------------------------=
   JOB DONE.
=------------------------------------------------------------------------------=
