
     Program PHONON v.5.4.0 (svn rev. 12620M) starts on 28Jul2016 at 11:21:16 

     This program is part of the open-source Quantum ESPRESSO suite
     for quantum simulation of materials; please cite
         "P. Giannozzi et al., J. Phys.:Condens. Matter 21 395502 (2009);
          URL http://www.quantum-espresso.org", 
     in publications or presentations arising from this work. More details at
     http://www.quantum-espresso.org/quote
 
           HOST :    x86_64-pc-linux-gnu
           ARCH :    x86_64
             CC :    icc
            CPP :    cpp
            F90 :    ifort
            F77 :    ifort
         DFLAGS :    -D__INTEL -D__FFTW -D__MPI -D__PARA -D__HDF5
      BLAS LIBS :    -lmkl_intel_lp64  -lmkl_sequential -lmkl_core
    LAPACK LIBS :    
       FFT LIBS :    
      MASS LIBS :    

     Parallel version (MPI), running on     2 processors
     R & G space division:  proc/nbgrp/npool/nimage =       2

     Reading data from directory:
     /home/nvarini/espresso_hdf5/espresso/tempdir/silicon.save

   Info: using nr1, nr2, nr3 values from input

   Info: using nr1, nr2, nr3 values from input

     IMPORTANT: XC functional enforced from input :
     Exchange-correlation      =  SLA  PZ   NOGX NOGC ( 1  1  0  0 0 0)
     Any further DFT definition will be discarded
     Please, verify this is what you really want

 
     Parallelization info
     --------------------
     sticks:   dense  smooth     PW     G-vecs:    dense   smooth      PW
     Min         174     174     60                 2139     2139     434
     Max         175     175     61                 2140     2140     435
     Sum         349     349    121                 4279     4279     869
 

     Calculation of q =    0.0000000   0.0000000   0.0000000

                                                                                

     bravais-lattice index     =            2
     lattice parameter (alat)  =      10.2000  a.u.
     unit-cell volume          =     265.3020 (a.u.)^3
     number of atoms/cell      =            2
     number of atomic types    =            1
     kinetic-energy cut-off    =      24.0000  Ry
     charge density cut-off    =      96.0000  Ry
     convergence threshold     =      1.0E-12
     beta                      =       0.7000
     number of iterations used =            4
     Exchange-correlation      =  SLA  PZ   NOGX NOGC ( 1  1  0  0 0 0)


     celldm(1)=   10.20000  celldm(2)=    0.00000  celldm(3)=    0.00000
     celldm(4)=    0.00000  celldm(5)=    0.00000  celldm(6)=    0.00000

     crystal axes: (cart. coord. in units of alat)
               a(1) = ( -0.5000  0.0000  0.5000 )  
               a(2) = (  0.0000  0.5000  0.5000 )  
               a(3) = ( -0.5000  0.5000  0.0000 )  

     reciprocal axes: (cart. coord. in units 2 pi/alat)
               b(1) = ( -1.0000 -1.0000  1.0000 )  
               b(2) = (  1.0000  1.0000  1.0000 )  
               b(3) = ( -1.0000  1.0000 -1.0000 )  


     Atoms inside the unit cell: 

     Cartesian axes

     site n.  atom      mass           positions (alat units)
        1     Si  28.0855   tau(    1) = (    0.00000    0.00000    0.00000  )
        2     Si  28.0855   tau(    2) = (    0.25000    0.25000    0.25000  )

     Computing dynamical matrix for 
                    q = (   0.0000000   0.0000000   0.0000000 )
 
     49 Sym.Ops. (with q -> -q+G )


     G cutoff =  252.9949  (   2139 G-vectors)     FFT grid: ( 24, 24, 24)
     number of k points=    10
                       cart. coord. in units 2pi/alat
        k(    1) = (  -0.1250000   0.1250000   0.1250000), wk =   0.0625000
        k(    2) = (  -0.3750000   0.3750000  -0.1250000), wk =   0.1875000
        k(    3) = (   0.3750000  -0.3750000   0.6250000), wk =   0.1875000
        k(    4) = (   0.1250000  -0.1250000   0.3750000), wk =   0.1875000
        k(    5) = (  -0.1250000   0.6250000   0.1250000), wk =   0.1875000
        k(    6) = (   0.6250000  -0.1250000   0.8750000), wk =   0.3750000
        k(    7) = (   0.3750000   0.1250000   0.6250000), wk =   0.3750000
        k(    8) = (  -0.1250000  -0.8750000   0.1250000), wk =   0.1875000
        k(    9) = (  -0.3750000   0.3750000   0.3750000), wk =   0.0625000
        k(   10) = (   0.3750000  -0.3750000   1.1250000), wk =   0.1875000

     PseudoPot. # 1 for Si read from file:
     /home/nvarini/espresso_hdf5/espresso/pseudo/Si.pz-vbc.UPF
     MD5 check sum: 6dfa03ddd5817404712e03e4d12deb78
     Pseudo is Norm-conserving, Zval =  4.0
     Generated by new atomic code, or converted to UPF format
     Using radial grid of  431 points,  2 beta functions with: 
                l(1) =   0
                l(2) =   1

     Mode symmetry, O_h (m-3m)  point group:


     Atomic displacements:
     There are   2 irreducible representations

     Representation     1      3 modes -T_2g G_25' G_5+  To be done

     Representation     2      3 modes -T_1u G_15  G_4-  To be done



     Alpha used in Ewald sum =   1.0000
     PHONON       :     0.46s CPU         0.47s WALL



     Representation #  1 modes #   1  2  3

     Self-consistent Calculation

      iter #   1 total cpu time :     0.7 secs   av.it.:   4.9
      thresh= 1.000E-02 alpha_mix =  0.700 |ddv_scf|^2 =  1.103E-07

      iter #   2 total cpu time :     1.1 secs   av.it.:  10.2
      thresh= 3.321E-05 alpha_mix =  0.700 |ddv_scf|^2 =  1.985E-09

      iter #   3 total cpu time :     1.5 secs   av.it.:   9.9
      thresh= 4.455E-06 alpha_mix =  0.700 |ddv_scf|^2 =  2.460E-11

      iter #   4 total cpu time :     1.9 secs   av.it.:   9.5
      thresh= 4.960E-07 alpha_mix =  0.700 |ddv_scf|^2 =  1.982E-14

     End of self-consistent calculation

     Convergence has been achieved 


     Representation #  2 modes #   4  5  6

     Self-consistent Calculation

      iter #   1 total cpu time :     2.1 secs   av.it.:   5.1
      thresh= 1.000E-02 alpha_mix =  0.700 |ddv_scf|^2 =  7.779E-08

      iter #   2 total cpu time :     2.5 secs   av.it.:  10.1
      thresh= 2.789E-05 alpha_mix =  0.700 |ddv_scf|^2 =  2.849E-09

      iter #   3 total cpu time :     2.9 secs   av.it.:  10.1
      thresh= 5.338E-06 alpha_mix =  0.700 |ddv_scf|^2 =  3.126E-11

      iter #   4 total cpu time :     3.5 secs   av.it.:   9.9
      thresh= 5.591E-07 alpha_mix =  0.700 |ddv_scf|^2 =  6.416E-14

     End of self-consistent calculation

     Convergence has been achieved 
 
     Number of q in the star =    1
     List of q in the star:
          1   0.000000000   0.000000000   0.000000000

     Diagonalizing the dynamical matrix

     q = (    0.000000000   0.000000000   0.000000000 ) 

 **************************************************************************
     freq (    1) =       0.480541 [THz] =      16.029133 [cm-1]
     freq (    2) =       0.480541 [THz] =      16.029133 [cm-1]
     freq (    3) =       0.480541 [THz] =      16.029133 [cm-1]
     freq (    4) =      15.270897 [THz] =     509.382304 [cm-1]
     freq (    5) =      15.270897 [THz] =     509.382304 [cm-1]
     freq (    6) =      15.270897 [THz] =     509.382304 [cm-1]
 **************************************************************************

     Mode symmetry, O_h (m-3m)  point group:

     freq (  1 -  3) =         16.0  [cm-1]   --> T_1u G_15  G_4- I  
     freq (  4 -  6) =        509.4  [cm-1]   --> T_2g G_25' G_5+ R  
 
     PHONON       :     3.18s CPU         3.51s WALL

     INITIALIZATION: 
     phq_setup    :      0.01s CPU      0.01s WALL (       1 calls)
     phq_init     :      0.02s CPU      0.02s WALL (       1 calls)
 
     phq_init     :      0.02s CPU      0.02s WALL (       1 calls)
     init_vloc    :      0.00s CPU      0.00s WALL (       1 calls)
     init_us_1    :      0.01s CPU      0.01s WALL (       1 calls)
 
     DYNAMICAL MATRIX:
     dynmat0      :      0.01s CPU      0.01s WALL (       1 calls)
     phqscf       :      2.71s CPU      3.03s WALL (       1 calls)
     dynmatrix    :      0.00s CPU      0.00s WALL (       1 calls)
 
     phqscf       :      2.71s CPU      3.03s WALL (       1 calls)
     solve_linter :      2.70s CPU      3.02s WALL (       2 calls)
     drhodv       :      0.01s CPU      0.01s WALL (       2 calls)
 
     dynmat0      :      0.01s CPU      0.01s WALL (       1 calls)
     dynmat_us    :      0.01s CPU      0.01s WALL (       1 calls)
     d2ionq       :      0.00s CPU      0.00s WALL (       1 calls)
 
     dynmat_us    :      0.01s CPU      0.01s WALL (       1 calls)
 
     phqscf       :      2.71s CPU      3.03s WALL (       1 calls)
     solve_linter :      2.70s CPU      3.02s WALL (       2 calls)
 
     solve_linter :      2.70s CPU      3.02s WALL (       2 calls)
     dvqpsi_us    :      0.06s CPU      0.06s WALL (      60 calls)
     ortho        :      0.01s CPU      0.01s WALL (     240 calls)
     cgsolve      :      1.68s CPU      1.73s WALL (     240 calls)
     incdrhoscf   :      0.18s CPU      0.19s WALL (     240 calls)
     vpsifft      :      0.12s CPU      0.13s WALL (     180 calls)
     dv_of_drho   :      0.01s CPU      0.01s WALL (      24 calls)
     mix_pot      :      0.01s CPU      0.02s WALL (       8 calls)
     psymdvscf    :      0.57s CPU      0.57s WALL (       8 calls)
 
     dvqpsi_us    :      0.06s CPU      0.06s WALL (      60 calls)
     dvqpsi_us_on :      0.01s CPU      0.00s WALL (      60 calls)
 
     cgsolve      :      1.68s CPU      1.73s WALL (     240 calls)
     ch_psi       :      1.63s CPU      1.67s WALL (    2355 calls)
 
     ch_psi       :      1.63s CPU      1.67s WALL (    2355 calls)
     last         :      0.12s CPU      0.12s WALL (    2355 calls)
 
     add_vuspsi   :      0.03s CPU      0.04s WALL (    2355 calls)
 
     incdrhoscf   :      0.18s CPU      0.19s WALL (     240 calls)
 
 
      General routines
     calbec       :      0.10s CPU      0.11s WALL (    5050 calls)
     fft          :      0.01s CPU      0.01s WALL (      76 calls)
     ffts         :      0.01s CPU      0.01s WALL (      72 calls)
     fftw         :      1.52s CPU      1.53s WALL (   21240 calls)
     davcio       :      0.02s CPU      0.26s WALL (     776 calls)
     write_rec    :      0.01s CPU      0.02s WALL (      10 calls)
 
 
     PHONON       :     3.18s CPU         3.51s WALL

 
   This run was terminated on:  11:21:19  28Jul2016            

=------------------------------------------------------------------------------=
   JOB DONE.
=------------------------------------------------------------------------------=
