
     Program PWSCF v.5.4.0 (svn rev. 12590M) starts on 21Jul2016 at 15:34:25 

     This program is part of the open-source Quantum ESPRESSO suite
     for quantum simulation of materials; please cite
         "P. Giannozzi et al., J. Phys.:Condens. Matter 21 395502 (2009);
          URL http://www.quantum-espresso.org", 
     in publications or presentations arising from this work. More details at
     http://www.quantum-espresso.org/quote
 
           HOST :    x86_64-pc-linux-gnu
           ARCH :    x86_64
             CC :    icc
            CPP :    cpp
            F90 :    gfortran
            F77 :    gfortran
         DFLAGS :    -D__GFORTRAN -D__STD_F95 -D__DFTI -D__MPI -D__PARA -D__HDF5
      BLAS LIBS :    -lmkl_gf_lp64  -lmkl_sequential -lmkl_core
    LAPACK LIBS :    
       FFT LIBS :    
      MASS LIBS :    

     Parallel version (MPI), running on     2 processors
     R & G space division:  proc/nbgrp/npool/nimage =       2
     Waiting for input...
     Reading input from standard input
     Message from routine read_cards :
     DEPRECATED: no units specified in ATOMIC_POSITIONS card
     Message from routine read_cards :
     ATOMIC_POSITIONS: units set to alat

     Current dimensions of program PWSCF are:
     Max number of different atomic species (ntypx) = 10
     Max number of k-points (npk) =  40000
     Max angular momentum in pseudopotentials (lmaxx) =  3

     Subspace diagonalization in iterative solution of the eigenvalue problem:
     a serial algorithm will be used

 
     Parallelization info
     --------------------
     sticks:   dense  smooth     PW     G-vecs:    dense   smooth      PW
     Min         950     950    240                31334    31334    3904
     Max         951     951    241                31335    31335    3905
     Sum        1901    1901    481                62669    62669    7809
 


     bravais-lattice index     =            1
     lattice parameter (alat)  =      20.0000  a.u.
     unit-cell volume          =    8000.0000 (a.u.)^3
     number of atoms/cell      =            1
     number of atomic types    =            1
     number of electrons       =         3.00
     number of Kohn-Sham states=            6
     kinetic-energy cutoff     =      15.0000  Ry
     charge density cutoff     =      60.0000  Ry
     convergence threshold     =      1.0E-08
     mixing beta               =       0.3500
     number of iterations used =            8  plain     mixing
     Exchange-correlation      =  SLA  PZ   NOGX NOGC ( 1  1  0  0 0 0)

     celldm(1)=  20.000000  celldm(2)=   0.000000  celldm(3)=   0.000000
     celldm(4)=   0.000000  celldm(5)=   0.000000  celldm(6)=   0.000000

     crystal axes: (cart. coord. in units of alat)
               a(1) = (   1.000000   0.000000   0.000000 )  
               a(2) = (   0.000000   1.000000   0.000000 )  
               a(3) = (   0.000000   0.000000   1.000000 )  

     reciprocal axes: (cart. coord. in units 2 pi/alat)
               b(1) = (  1.000000  0.000000  0.000000 )  
               b(2) = (  0.000000  1.000000  0.000000 )  
               b(3) = (  0.000000  0.000000  1.000000 )  


     PseudoPot. # 1 for Al read from file:
     /home/nvarini/espresso_hdf5/espresso/pseudo/Al.pz-vbc.UPF
     MD5 check sum: 614279c88ff8d45c90147292d03ed420
     Pseudo is Norm-conserving, Zval =  3.0
     Generated by new atomic code, or converted to UPF format
     Using radial grid of  171 points,  2 beta functions with: 
                l(1) =   0
                l(2) =   1

     atomic species   valence    mass     pseudopotential
        Al             3.00    26.98154     Al( 1.00)

     No symmetry found



   Cartesian axes

     site n.     atom                  positions (alat units)
         1           Al  tau(   1) = (   0.0000000   0.0000000   0.0000000  )

     number of k points=     1
                       cart. coord. in units 2pi/alat
        k(    1) = (   0.0000000   0.0000000   0.0000000), wk =   2.0000000

     Dense  grid:    62669 G-vectors     FFT dimensions: (  50,  50,  50)

     Occupations read from input 

        2.0000   0.3333   0.3333   0.3333   0.0000   0.0000

     Largest allocated arrays     est. size (Mb)     dimensions
        Kohn-Sham Wavefunctions         0.36 Mb     (    3904,    6)
        NL pseudopotentials             0.24 Mb     (    3904,    4)
        Each V/rho on FFT grid          0.95 Mb     (   62500)
        Each G-vector array             0.24 Mb     (   31334)
        G-vector shells                 0.00 Mb     (     508)
     Largest temporary arrays     est. size (Mb)     dimensions
        Auxiliary wavefunctions         1.43 Mb     (    3904,   24)
        Each subspace H/S matrix        0.01 Mb     (      24,   24)
        Each <psi_i|beta_j> matrix      0.00 Mb     (       4,    6)
        Arrays for rho mixing           7.63 Mb     (   62500,    8)

     Initial potential from superposition of free atoms
     Check: negative starting charge=   -0.005717

     starting charge    2.99794, renormalised to    3.00000

     negative rho (up, down):  5.721E-03 0.000E+00
     Starting wfc are    4 randomized atomic wfcs +    2 random wfc

     total cpu time spent up to now is        0.1 secs

     per-process dynamical memory:    12.3 Mb

     Self-consistent Calculation

     iteration #  1     ecut=    15.00 Ry     beta=0.35
     Davidson diagonalization with overlap
     ethr =  1.00E-02,  avg # of iterations =  6.0

     Threshold (ethr) on eigenvalues was too large:
     Diagonalizing with lowered threshold

     Davidson diagonalization with overlap
     ethr =  2.58E-07,  avg # of iterations = 14.0

     negative rho (up, down):  2.909E-03 0.000E+00

     total cpu time spent up to now is        0.3 secs

     total energy              =      -3.87516234 Ry
     Harris-Foulkes estimate   =      -3.87508899 Ry
     estimated scf accuracy    <       0.00000730 Ry

     iteration #  2     ecut=    15.00 Ry     beta=0.35
     Davidson diagonalization with overlap
     ethr =  2.43E-07,  avg # of iterations =  3.0

     negative rho (up, down):  3.670E-05 0.000E+00

     total cpu time spent up to now is        0.3 secs

     total energy              =      -3.87524727 Ry
     Harris-Foulkes estimate   =      -3.87516255 Ry
     estimated scf accuracy    <       0.00000286 Ry

     iteration #  3     ecut=    15.00 Ry     beta=0.35
     Davidson diagonalization with overlap
     ethr =  9.53E-08,  avg # of iterations =  5.0

     negative rho (up, down):  9.089E-06 0.000E+00

     total cpu time spent up to now is        0.4 secs

     total energy              =      -3.87524881 Ry
     Harris-Foulkes estimate   =      -3.87524784 Ry
     estimated scf accuracy    <       0.00000006 Ry

     iteration #  4     ecut=    15.00 Ry     beta=0.35
     Davidson diagonalization with overlap
     ethr =  1.88E-09,  avg # of iterations =  3.0

     negative rho (up, down):  1.568E-08 0.000E+00

     total cpu time spent up to now is        0.5 secs

     total energy              =      -3.87524911 Ry
     Harris-Foulkes estimate   =      -3.87524883 Ry
     estimated scf accuracy    <       0.00000001 Ry

     iteration #  5     ecut=    15.00 Ry     beta=0.35
     Davidson diagonalization with overlap
     ethr =  4.79E-10,  avg # of iterations =  2.0

     total cpu time spent up to now is        0.5 secs

     End of self-consistent calculation

          k = 0.0000 0.0000 0.0000 (  7809 PWs)   bands (ev):

    -7.5787  -2.5530  -2.5530  -2.5530  -0.4277   0.7012

     highest occupied, lowest unoccupied level (ev):    -2.5530   -0.4277

!    total energy              =      -3.87524912 Ry
     Harris-Foulkes estimate   =      -3.87524911 Ry
     estimated scf accuracy    <          5.4E-10 Ry

     The total energy is the sum of the following terms:

     one-electron contribution =      -3.07453505 Ry
     hartree contribution      =       1.65113712 Ry
     xc contribution           =      -1.17506724 Ry
     ewald contribution        =      -1.27678394 Ry

     convergence has been achieved in   5 iterations

     Writing output data file pwscf.save
 
     init_run     :      0.05s CPU      0.06s WALL (       1 calls)
     electrons    :      0.42s CPU      0.45s WALL (       1 calls)

     Called by init_run:
     wfcinit      :      0.02s CPU      0.01s WALL (       1 calls)
     potinit      :      0.01s CPU      0.01s WALL (       1 calls)

     Called by electrons:
     c_bands      :      0.30s CPU      0.32s WALL (       6 calls)
     sum_band     :      0.05s CPU      0.06s WALL (       6 calls)
     v_of_rho     :      0.04s CPU      0.04s WALL (       6 calls)
     mix_rho      :      0.02s CPU      0.03s WALL (       6 calls)

     Called by c_bands:
     init_us_2    :      0.01s CPU      0.01s WALL (      13 calls)
     cegterg      :      0.30s CPU      0.31s WALL (       6 calls)

     Called by sum_band:

     Called by *egterg:
     h_psi        :      0.26s CPU      0.27s WALL (      40 calls)
     g_psi        :      0.00s CPU      0.01s WALL (      33 calls)
     cdiaghg      :      0.00s CPU      0.01s WALL (      38 calls)

     Called by h_psi:
     add_vuspsi   :      0.00s CPU      0.00s WALL (      40 calls)

     General routines
     calbec       :      0.00s CPU      0.00s WALL (      40 calls)
     fft          :      0.03s CPU      0.04s WALL (      25 calls)
     fftw         :      0.26s CPU      0.26s WALL (     324 calls)
 
     Parallel routines
     fft_scatter  :      0.06s CPU      0.06s WALL (     349 calls)
 
     PWSCF        :     0.50s CPU         0.55s WALL

 
   This run was terminated on:  15:34:26  21Jul2016            

=------------------------------------------------------------------------------=
   JOB DONE.
=------------------------------------------------------------------------------=
