
     Program PWSCF v.5.4.0 (svn rev. 12782M) starts on 18Aug2016 at 16:11:14 

     This program is part of the open-source Quantum ESPRESSO suite
     for quantum simulation of materials; please cite
         "P. Giannozzi et al., J. Phys.:Condens. Matter 21 395502 (2009);
          URL http://www.quantum-espresso.org", 
     in publications or presentations arising from this work. More details at
     http://www.quantum-espresso.org/quote
 
           HOST :    x86_64-pc-linux-gnu
           ARCH :    x86_64
             CC :    icc
            CPP :    cpp
            F90 :    ifort
            F77 :    ifort
         DFLAGS :    -D__INTEL -D__FFTW -D__MPI -D__PARA -D__HDF5
      BLAS LIBS :    -lmkl_intel_lp64  -lmkl_sequential -lmkl_core
    LAPACK LIBS :    
       FFT LIBS :    
      MASS LIBS :    

     Parallel version (MPI), running on     2 processors
     R & G space division:  proc/nbgrp/npool/nimage =       2
     Waiting for input...
     Reading input from standard input
     Message from routine read_cards :
     DEPRECATED: no units specified in ATOMIC_POSITIONS card
     Message from routine read_cards :
     ATOMIC_POSITIONS: units set to alat

     Current dimensions of program PWSCF are:
     Max number of different atomic species (ntypx) = 10
     Max number of k-points (npk) =  40000
     Max angular momentum in pseudopotentials (lmaxx) =  3
               file Ni.pbe-nd-rrkjus.UPF: wavefunction(s)  4S renormalized

     gamma-point specific algorithms are used

     Subspace diagonalization in iterative solution of the eigenvalue problem:
     a serial algorithm will be used

 
     Parallelization info
     --------------------
     sticks:   dense  smooth     PW     G-vecs:    dense   smooth      PW
     Min        2338     841    210               120327    26015    3306
     Max        2339     844    211               120330    26020    3313
     Sum        4677    1685    421               240657    52035    6619
 


     bravais-lattice index     =            1
     lattice parameter (alat)  =      14.0000  a.u.
     unit-cell volume          =    2744.0000 (a.u.)^3
     number of atoms/cell      =            1
     number of atomic types    =            1
     number of electrons       =        10.00
     number of Kohn-Sham states=            6
     kinetic-energy cutoff     =      27.0000  Ry
     charge density cutoff     =     300.0000  Ry
     convergence threshold     =      1.0E-08
     mixing beta               =       0.2500
     number of iterations used =            8  plain     mixing
     Exchange-correlation      =  SLA  PW   PBE  PBE ( 1  4  3  4 0 0)

     celldm(1)=  14.000000  celldm(2)=   0.000000  celldm(3)=   0.000000
     celldm(4)=   0.000000  celldm(5)=   0.000000  celldm(6)=   0.000000

     crystal axes: (cart. coord. in units of alat)
               a(1) = (   1.000000   0.000000   0.000000 )  
               a(2) = (   0.000000   1.000000   0.000000 )  
               a(3) = (   0.000000   0.000000   1.000000 )  

     reciprocal axes: (cart. coord. in units 2 pi/alat)
               b(1) = (  1.000000  0.000000  0.000000 )  
               b(2) = (  0.000000  1.000000  0.000000 )  
               b(3) = (  0.000000  0.000000  1.000000 )  


     PseudoPot. # 1 for Ni read from file:
     /home/nvarini/espresso_hdf5/espresso/pseudo/Ni.pbe-nd-rrkjus.UPF
     MD5 check sum: 8081f0a005c9a5470caab1a58e82ecb2
     Pseudo is Ultrasoft + core correction, Zval = 10.0
     Generated by new atomic code, or converted to UPF format
     Using radial grid of 1203 points,  6 beta functions with: 
                l(1) =   0
                l(2) =   0
                l(3) =   1
                l(4) =   1
                l(5) =   2
                l(6) =   2
     Q(r) pseudized with 0 coefficients 


     atomic species   valence    mass     pseudopotential
        Ni            10.00    58.69340     Ni( 1.00)

     Starting magnetic structure 
     atomic species   magnetization
        Ni           0.500

     No symmetry found



   Cartesian axes

     site n.     atom                  positions (alat units)
         1           Ni  tau(   1) = (   0.0000000   0.0000000   0.0000000  )

     number of k points=     1
                       cart. coord. in units 2pi/alat
        k(    1) = (   0.0000000   0.0000000   0.0000000), wk =   1.0000000

     Dense  grid:   120329 G-vectors     FFT dimensions: (  80,  80,  80)

     Smooth grid:    26018 G-vectors     FFT dimensions: (  48,  48,  48)

     Occupations read from input 

      Spin-up

        1.0000   1.0000   1.0000   1.0000   1.0000   1.0000

      Spin-down

        0.0000   0.8000   0.8000   0.8000   0.8000   0.8000

     Estimated max dynamical RAM per process >      71.68Mb

     Estimated total allocated dynamical RAM >     143.37Mb
     Generating pointlists ...
     new r_m :   0.4125 (alat units)  5.7750 (a.u.) for type    1

     Check: negative/imaginary core charge=   -0.000019    0.000000

     Initial potential from superposition of free atoms

     starting charge    9.99954, renormalised to   10.00000

     negative rho (up, down):  8.749E-06 2.916E-06
     Starting wfc are    6 atomic wfcs

     total cpu time spent up to now is        1.5 secs

     per-process dynamical memory:    74.4 Mb

     Self-consistent Calculation

     iteration #  1     ecut=    27.00 Ry     beta=0.25
     Davidson diagonalization with overlap
     ethr =  1.00E-02,  avg # of iterations =  1.0

     negative rho (up, down):  3.038E-06 3.694E-06

     total cpu time spent up to now is        2.6 secs

     total energy              =     -85.43445501 Ry
     Harris-Foulkes estimate   =     -85.35918088 Ry
     estimated scf accuracy    <       0.24439240 Ry

     total magnetization       =     2.00 Bohr mag/cell
     absolute magnetization    =     2.00 Bohr mag/cell

     iteration #  2     ecut=    27.00 Ry     beta=0.25
     Davidson diagonalization with overlap
     ethr =  2.44E-03,  avg # of iterations =  1.0

     negative rho (up, down):  1.951E-02 3.800E-02

     total cpu time spent up to now is        3.6 secs

     total energy              =     -85.53217082 Ry
     Harris-Foulkes estimate   =     -85.43632703 Ry
     estimated scf accuracy    <       0.14520811 Ry

     total magnetization       =     2.00 Bohr mag/cell
     absolute magnetization    =     2.00 Bohr mag/cell

     iteration #  3     ecut=    27.00 Ry     beta=0.25
     Davidson diagonalization with overlap
     ethr =  1.45E-03,  avg # of iterations =  1.0

     negative rho (up, down):  1.323E-02 2.866E-02

     total cpu time spent up to now is        4.6 secs

     total energy              =     -85.53994589 Ry
     Harris-Foulkes estimate   =     -85.53885002 Ry
     estimated scf accuracy    <       0.00029035 Ry

     total magnetization       =     2.00 Bohr mag/cell
     absolute magnetization    =     2.00 Bohr mag/cell

     iteration #  4     ecut=    27.00 Ry     beta=0.25
     Davidson diagonalization with overlap
     ethr =  2.90E-06,  avg # of iterations =  3.5

     negative rho (up, down):  8.007E-03 2.236E-02

     total cpu time spent up to now is        5.7 secs

     total energy              =     -85.54142181 Ry
     Harris-Foulkes estimate   =     -85.54057770 Ry
     estimated scf accuracy    <       0.00007027 Ry

     total magnetization       =     2.00 Bohr mag/cell
     absolute magnetization    =     2.00 Bohr mag/cell

     iteration #  5     ecut=    27.00 Ry     beta=0.25
     Davidson diagonalization with overlap
     ethr =  7.03E-07,  avg # of iterations =  2.5

     negative rho (up, down):  4.621E-03 1.651E-02

     total cpu time spent up to now is        6.7 secs

     total energy              =     -85.54224626 Ry
     Harris-Foulkes estimate   =     -85.54146128 Ry
     estimated scf accuracy    <       0.00001709 Ry

     total magnetization       =     2.00 Bohr mag/cell
     absolute magnetization    =     2.00 Bohr mag/cell

     iteration #  6     ecut=    27.00 Ry     beta=0.25
     Davidson diagonalization with overlap
     ethr =  1.71E-07,  avg # of iterations =  3.5

     negative rho (up, down):  2.759E-03 1.215E-02

     total cpu time spent up to now is        7.8 secs

     total energy              =     -85.54287042 Ry
     Harris-Foulkes estimate   =     -85.54226098 Ry
     estimated scf accuracy    <       0.00000845 Ry

     total magnetization       =     2.00 Bohr mag/cell
     absolute magnetization    =     2.00 Bohr mag/cell

     iteration #  7     ecut=    27.00 Ry     beta=0.25
     Davidson diagonalization with overlap
     ethr =  8.45E-08,  avg # of iterations =  2.0

     negative rho (up, down):  1.492E-03 8.454E-03

     total cpu time spent up to now is        8.9 secs

     total energy              =     -85.54322467 Ry
     Harris-Foulkes estimate   =     -85.54287765 Ry
     estimated scf accuracy    <       0.00000292 Ry

     total magnetization       =     2.00 Bohr mag/cell
     absolute magnetization    =     2.00 Bohr mag/cell

     iteration #  8     ecut=    27.00 Ry     beta=0.25
     Davidson diagonalization with overlap
     ethr =  2.92E-08,  avg # of iterations =  3.5

     negative rho (up, down):  7.855E-04 5.804E-03

     total cpu time spent up to now is       10.0 secs

     total energy              =     -85.54339382 Ry
     Harris-Foulkes estimate   =     -85.54322700 Ry
     estimated scf accuracy    <       0.00000014 Ry

     total magnetization       =     2.00 Bohr mag/cell
     absolute magnetization    =     2.00 Bohr mag/cell

     iteration #  9     ecut=    27.00 Ry     beta=0.25
     Davidson diagonalization with overlap
     ethr =  1.37E-09,  avg # of iterations =  4.0

     negative rho (up, down):  3.889E-04 3.983E-03

     total cpu time spent up to now is       11.1 secs

     total energy              =     -85.54350743 Ry
     Harris-Foulkes estimate   =     -85.54339460 Ry
     estimated scf accuracy    <       0.00000046 Ry

     total magnetization       =     2.00 Bohr mag/cell
     absolute magnetization    =     2.00 Bohr mag/cell

     iteration # 10     ecut=    27.00 Ry     beta=0.25
     Davidson diagonalization with overlap
     ethr =  1.37E-09,  avg # of iterations =  3.5

     negative rho (up, down):  1.832E-04 2.720E-03

     total cpu time spent up to now is       12.2 secs

     total energy              =     -85.54356721 Ry
     Harris-Foulkes estimate   =     -85.54350782 Ry
     estimated scf accuracy    <       0.00000090 Ry

     total magnetization       =     2.00 Bohr mag/cell
     absolute magnetization    =     2.00 Bohr mag/cell

     iteration # 11     ecut=    27.00 Ry     beta=0.25
     Davidson diagonalization with overlap
     ethr =  1.37E-09,  avg # of iterations =  3.5

     negative rho (up, down):  8.241E-05 1.796E-03

     total cpu time spent up to now is       13.3 secs

     total energy              =     -85.54360621 Ry
     Harris-Foulkes estimate   =     -85.54356741 Ry
     estimated scf accuracy    <       0.00000114 Ry

     total magnetization       =     2.00 Bohr mag/cell
     absolute magnetization    =     2.00 Bohr mag/cell

     iteration # 12     ecut=    27.00 Ry     beta=0.25
     Davidson diagonalization with overlap
     ethr =  1.37E-09,  avg # of iterations =  3.5

     negative rho (up, down):  3.532E-05 1.186E-03

     total cpu time spent up to now is       14.3 secs

     total energy              =     -85.54362708 Ry
     Harris-Foulkes estimate   =     -85.54360647 Ry
     estimated scf accuracy    <       0.00000394 Ry

     total magnetization       =     2.00 Bohr mag/cell
     absolute magnetization    =     2.00 Bohr mag/cell

     iteration # 13     ecut=    27.00 Ry     beta=0.25
     Davidson diagonalization with overlap
     ethr =  1.37E-09,  avg # of iterations =  2.0

     negative rho (up, down):  1.351E-05 7.826E-04

     total cpu time spent up to now is       15.4 secs

     total energy              =     -85.54364023 Ry
     Harris-Foulkes estimate   =     -85.54362713 Ry
     estimated scf accuracy    <       0.00000461 Ry

     total magnetization       =     2.00 Bohr mag/cell
     absolute magnetization    =     2.00 Bohr mag/cell

     iteration # 14     ecut=    27.00 Ry     beta=0.25
     Davidson diagonalization with overlap
     ethr =  1.37E-09,  avg # of iterations =  2.5

     negative rho (up, down):  4.419E-06 5.044E-04

     total cpu time spent up to now is       16.5 secs

     total energy              =     -85.54364746 Ry
     Harris-Foulkes estimate   =     -85.54364026 Ry
     estimated scf accuracy    <       0.00000464 Ry

     total magnetization       =     2.00 Bohr mag/cell
     absolute magnetization    =     2.00 Bohr mag/cell

     iteration # 15     ecut=    27.00 Ry     beta=0.25
     Davidson diagonalization with overlap
     ethr =  1.37E-09,  avg # of iterations =  2.0

     negative rho (up, down):  1.293E-06 3.096E-04

     total cpu time spent up to now is       17.6 secs

     total energy              =     -85.54365208 Ry
     Harris-Foulkes estimate   =     -85.54364747 Ry
     estimated scf accuracy    <       0.00000482 Ry

     total magnetization       =     2.00 Bohr mag/cell
     absolute magnetization    =     2.00 Bohr mag/cell

     iteration # 16     ecut=    27.00 Ry     beta=0.25
     Davidson diagonalization with overlap
     ethr =  1.37E-09,  avg # of iterations =  2.5

     negative rho (up, down):  4.158E-07 1.862E-04

     total cpu time spent up to now is       18.7 secs

     total energy              =     -85.54365783 Ry
     Harris-Foulkes estimate   =     -85.54365210 Ry
     estimated scf accuracy    <       0.00000563 Ry

     total magnetization       =     2.00 Bohr mag/cell
     absolute magnetization    =     2.00 Bohr mag/cell

     iteration # 17     ecut=    27.00 Ry     beta=0.25
     Davidson diagonalization with overlap
     ethr =  1.37E-09,  avg # of iterations =  2.5

     negative rho (up, down):  1.066E-07 1.113E-04

     total cpu time spent up to now is       19.8 secs

     total energy              =     -85.54365695 Ry
     Harris-Foulkes estimate   =     -85.54365784 Ry
     estimated scf accuracy    <       0.00000553 Ry

     total magnetization       =     2.00 Bohr mag/cell
     absolute magnetization    =     2.00 Bohr mag/cell

     iteration # 18     ecut=    27.00 Ry     beta=0.25
     Davidson diagonalization with overlap
     ethr =  1.37E-09,  avg # of iterations =  2.5

     negative rho (up, down):  2.576E-08 7.589E-05

     total cpu time spent up to now is       20.8 secs

     total energy              =     -85.54365726 Ry
     Harris-Foulkes estimate   =     -85.54365697 Ry
     estimated scf accuracy    <       0.00000437 Ry

     total magnetization       =     2.00 Bohr mag/cell
     absolute magnetization    =     2.00 Bohr mag/cell

     iteration # 19     ecut=    27.00 Ry     beta=0.25
     Davidson diagonalization with overlap
     ethr =  1.37E-09,  avg # of iterations =  3.0

     negative rho (up, down):  2.001E-08 6.755E-05

     total cpu time spent up to now is       21.9 secs

     total energy              =     -85.54366551 Ry
     Harris-Foulkes estimate   =     -85.54365746 Ry
     estimated scf accuracy    <       0.00000135 Ry

     total magnetization       =     2.00 Bohr mag/cell
     absolute magnetization    =     2.00 Bohr mag/cell

     iteration # 20     ecut=    27.00 Ry     beta=0.25
     Davidson diagonalization with overlap
     ethr =  1.37E-09,  avg # of iterations =  3.0

     negative rho (up, down):  1.001E-08 5.433E-05

     total cpu time spent up to now is       23.0 secs

     total energy              =     -85.54366761 Ry
     Harris-Foulkes estimate   =     -85.54366570 Ry
     estimated scf accuracy    <       0.00000006 Ry

     total magnetization       =     2.00 Bohr mag/cell
     absolute magnetization    =     2.00 Bohr mag/cell

     iteration # 21     ecut=    27.00 Ry     beta=0.25
     Davidson diagonalization with overlap
     ethr =  5.62E-10,  avg # of iterations =  3.0

     negative rho (up, down):  6.777E-09 3.704E-05

     total cpu time spent up to now is       24.1 secs

     total energy              =     -85.54366657 Ry
     Harris-Foulkes estimate   =     -85.54366767 Ry
     estimated scf accuracy    <       0.00000019 Ry

     total magnetization       =     2.00 Bohr mag/cell
     absolute magnetization    =     2.00 Bohr mag/cell

     iteration # 22     ecut=    27.00 Ry     beta=0.25
     Davidson diagonalization with overlap
     ethr =  5.62E-10,  avg # of iterations =  2.5

     negative rho (up, down):  4.728E-09 2.929E-05

     total cpu time spent up to now is       25.2 secs

     total energy              =     -85.54366613 Ry
     Harris-Foulkes estimate   =     -85.54366659 Ry
     estimated scf accuracy    <       0.00000013 Ry

     total magnetization       =     2.00 Bohr mag/cell
     absolute magnetization    =     2.00 Bohr mag/cell

     iteration # 23     ecut=    27.00 Ry     beta=0.25
     Davidson diagonalization with overlap
     ethr =  5.62E-10,  avg # of iterations =  2.0

     negative rho (up, down):  3.082E-09 2.383E-05

     total cpu time spent up to now is       26.3 secs

     total energy              =     -85.54366616 Ry
     Harris-Foulkes estimate   =     -85.54366614 Ry
     estimated scf accuracy    <       0.00000008 Ry

     total magnetization       =     2.00 Bohr mag/cell
     absolute magnetization    =     2.00 Bohr mag/cell

     iteration # 24     ecut=    27.00 Ry     beta=0.25
     Davidson diagonalization with overlap
     ethr =  5.62E-10,  avg # of iterations =  2.0

     negative rho (up, down):  1.797E-09 2.041E-05

     total cpu time spent up to now is       27.3 secs

     total energy              =     -85.54366628 Ry
     Harris-Foulkes estimate   =     -85.54366616 Ry
     estimated scf accuracy    <       0.00000017 Ry

     total magnetization       =     2.00 Bohr mag/cell
     absolute magnetization    =     2.00 Bohr mag/cell

     iteration # 25     ecut=    27.00 Ry     beta=0.25
     Davidson diagonalization with overlap
     ethr =  5.62E-10,  avg # of iterations =  1.5

     negative rho (up, down):  8.392E-10 1.862E-05

     total cpu time spent up to now is       28.4 secs

     total energy              =     -85.54366586 Ry
     Harris-Foulkes estimate   =     -85.54366628 Ry
     estimated scf accuracy    <       0.00000024 Ry

     total magnetization       =     2.00 Bohr mag/cell
     absolute magnetization    =     2.00 Bohr mag/cell

     iteration # 26     ecut=    27.00 Ry     beta=0.25
     Davidson diagonalization with overlap
     ethr =  5.62E-10,  avg # of iterations =  1.5

     negative rho (up, down):  0.000E+00 1.770E-05

     total cpu time spent up to now is       29.5 secs

     total energy              =     -85.54366511 Ry
     Harris-Foulkes estimate   =     -85.54366586 Ry
     estimated scf accuracy    <       0.00000035 Ry

     total magnetization       =     2.00 Bohr mag/cell
     absolute magnetization    =     2.00 Bohr mag/cell

     iteration # 27     ecut=    27.00 Ry     beta=0.25
     Davidson diagonalization with overlap
     ethr =  5.62E-10,  avg # of iterations =  2.0

     negative rho (up, down):  0.000E+00 1.739E-05

     total cpu time spent up to now is       30.6 secs

     total energy              =     -85.54366583 Ry
     Harris-Foulkes estimate   =     -85.54366512 Ry
     estimated scf accuracy    <       0.00000056 Ry

     total magnetization       =     2.00 Bohr mag/cell
     absolute magnetization    =     2.00 Bohr mag/cell

     iteration # 28     ecut=    27.00 Ry     beta=0.25
     Davidson diagonalization with overlap
     ethr =  5.62E-10,  avg # of iterations =  2.0

     negative rho (up, down):  0.000E+00 1.716E-05

     total cpu time spent up to now is       31.7 secs

     total energy              =     -85.54366644 Ry
     Harris-Foulkes estimate   =     -85.54366584 Ry
     estimated scf accuracy    <       0.00000039 Ry

     total magnetization       =     2.00 Bohr mag/cell
     absolute magnetization    =     2.00 Bohr mag/cell

     iteration # 29     ecut=    27.00 Ry     beta=0.25
     Davidson diagonalization with overlap
     ethr =  5.62E-10,  avg # of iterations =  1.5

     negative rho (up, down):  0.000E+00 1.687E-05

     total cpu time spent up to now is       32.7 secs

     total energy              =     -85.54366497 Ry
     Harris-Foulkes estimate   =     -85.54366644 Ry
     estimated scf accuracy    <       0.00000057 Ry

     total magnetization       =     2.00 Bohr mag/cell
     absolute magnetization    =     2.00 Bohr mag/cell

     iteration # 30     ecut=    27.00 Ry     beta=0.25
     Davidson diagonalization with overlap
     ethr =  5.62E-10,  avg # of iterations =  2.0

     negative rho (up, down):  0.000E+00 1.691E-05

     total cpu time spent up to now is       33.8 secs

     total energy              =     -85.54366513 Ry
     Harris-Foulkes estimate   =     -85.54366497 Ry
     estimated scf accuracy    <       0.00000038 Ry

     total magnetization       =     2.00 Bohr mag/cell
     absolute magnetization    =     2.00 Bohr mag/cell

     iteration # 31     ecut=    27.00 Ry     beta=0.25
     Davidson diagonalization with overlap
     ethr =  5.62E-10,  avg # of iterations =  1.5

     negative rho (up, down):  0.000E+00 1.719E-05

     total cpu time spent up to now is       34.9 secs

     total energy              =     -85.54366613 Ry
     Harris-Foulkes estimate   =     -85.54366514 Ry
     estimated scf accuracy    <       0.00000068 Ry

     total magnetization       =     2.00 Bohr mag/cell
     absolute magnetization    =     2.00 Bohr mag/cell

     iteration # 32     ecut=    27.00 Ry     beta=0.25
     Davidson diagonalization with overlap
     ethr =  5.62E-10,  avg # of iterations =  2.0

     negative rho (up, down):  0.000E+00 1.678E-05

     total cpu time spent up to now is       36.0 secs

     total energy              =     -85.54366581 Ry
     Harris-Foulkes estimate   =     -85.54366613 Ry
     estimated scf accuracy    <       0.00000058 Ry

     total magnetization       =     2.00 Bohr mag/cell
     absolute magnetization    =     2.00 Bohr mag/cell

     iteration # 33     ecut=    27.00 Ry     beta=0.25
     Davidson diagonalization with overlap
     ethr =  5.62E-10,  avg # of iterations =  3.0

     negative rho (up, down):  0.000E+00 1.718E-05

     total cpu time spent up to now is       37.0 secs

     total energy              =     -85.54366529 Ry
     Harris-Foulkes estimate   =     -85.54366590 Ry
     estimated scf accuracy    <       0.00000216 Ry

     total magnetization       =     2.00 Bohr mag/cell
     absolute magnetization    =     2.00 Bohr mag/cell

     iteration # 34     ecut=    27.00 Ry     beta=0.25
     Davidson diagonalization with overlap
     ethr =  5.62E-10,  avg # of iterations =  1.5

     negative rho (up, down):  0.000E+00 1.872E-05

     total cpu time spent up to now is       38.1 secs

     total energy              =     -85.54366524 Ry
     Harris-Foulkes estimate   =     -85.54366529 Ry
     estimated scf accuracy    <       0.00000207 Ry

     total magnetization       =     2.00 Bohr mag/cell
     absolute magnetization    =     2.00 Bohr mag/cell

     iteration # 35     ecut=    27.00 Ry     beta=0.25
     Davidson diagonalization with overlap
     ethr =  5.62E-10,  avg # of iterations =  3.0

     negative rho (up, down):  0.000E+00 1.722E-05

     total cpu time spent up to now is       39.2 secs

     total energy              =     -85.54366581 Ry
     Harris-Foulkes estimate   =     -85.54366530 Ry
     estimated scf accuracy    <       0.00000085 Ry

     total magnetization       =     2.00 Bohr mag/cell
     absolute magnetization    =     2.00 Bohr mag/cell

     iteration # 36     ecut=    27.00 Ry     beta=0.25
     Davidson diagonalization with overlap
     ethr =  5.62E-10,  avg # of iterations =  3.0

     negative rho (up, down):  0.000E+00 1.688E-05

     total cpu time spent up to now is       40.3 secs

     total energy              =     -85.54366641 Ry
     Harris-Foulkes estimate   =     -85.54366590 Ry
     estimated scf accuracy    <       0.00000272 Ry

     total magnetization       =     2.00 Bohr mag/cell
     absolute magnetization    =     2.00 Bohr mag/cell

     iteration # 37     ecut=    27.00 Ry     beta=0.25
     Davidson diagonalization with overlap
     ethr =  5.62E-10,  avg # of iterations =  3.0

     negative rho (up, down):  0.000E+00 1.799E-05

     total cpu time spent up to now is       41.4 secs

     total energy              =     -85.54366627 Ry
     Harris-Foulkes estimate   =     -85.54366648 Ry
     estimated scf accuracy    <       0.00000569 Ry

     total magnetization       =     2.00 Bohr mag/cell
     absolute magnetization    =     2.00 Bohr mag/cell

     iteration # 38     ecut=    27.00 Ry     beta=0.25
     Davidson diagonalization with overlap
     ethr =  5.62E-10,  avg # of iterations =  1.5

     negative rho (up, down):  0.000E+00 2.597E-05

     total cpu time spent up to now is       42.4 secs

     total energy              =     -85.54366590 Ry
     Harris-Foulkes estimate   =     -85.54366627 Ry
     estimated scf accuracy    <       0.00000713 Ry

     total magnetization       =     2.00 Bohr mag/cell
     absolute magnetization    =     2.00 Bohr mag/cell

     iteration # 39     ecut=    27.00 Ry     beta=0.25
     Davidson diagonalization with overlap
     ethr =  5.62E-10,  avg # of iterations =  4.0

     negative rho (up, down):  0.000E+00 2.177E-05

     total cpu time spent up to now is       43.5 secs

     total energy              =     -85.54366516 Ry
     Harris-Foulkes estimate   =     -85.54366625 Ry
     estimated scf accuracy    <       0.00000153 Ry

     total magnetization       =     2.00 Bohr mag/cell
     absolute magnetization    =     2.00 Bohr mag/cell

     iteration # 40     ecut=    27.00 Ry     beta=0.25
     Davidson diagonalization with overlap
     ethr =  5.62E-10,  avg # of iterations =  2.5

     negative rho (up, down):  0.000E+00 2.649E-05

     total cpu time spent up to now is       44.6 secs

     total energy              =     -85.54366574 Ry
     Harris-Foulkes estimate   =     -85.54366518 Ry
     estimated scf accuracy    <       0.00000228 Ry

     total magnetization       =     2.00 Bohr mag/cell
     absolute magnetization    =     2.00 Bohr mag/cell

     iteration # 41     ecut=    27.00 Ry     beta=0.25
     Davidson diagonalization with overlap
     ethr =  5.62E-10,  avg # of iterations =  3.0

     negative rho (up, down):  0.000E+00 2.318E-05

     total cpu time spent up to now is       45.7 secs

     total energy              =     -85.54366560 Ry
     Harris-Foulkes estimate   =     -85.54366591 Ry
     estimated scf accuracy    <       0.00000054 Ry

     total magnetization       =     2.00 Bohr mag/cell
     absolute magnetization    =     2.00 Bohr mag/cell

     iteration # 42     ecut=    27.00 Ry     beta=0.25
     Davidson diagonalization with overlap
     ethr =  5.62E-10,  avg # of iterations =  1.5

     negative rho (up, down):  0.000E+00 1.898E-05

     total cpu time spent up to now is       46.8 secs

     total energy              =     -85.54366547 Ry
     Harris-Foulkes estimate   =     -85.54366560 Ry
     estimated scf accuracy    <       0.00000057 Ry

     total magnetization       =     2.00 Bohr mag/cell
     absolute magnetization    =     2.00 Bohr mag/cell

     iteration # 43     ecut=    27.00 Ry     beta=0.25
     Davidson diagonalization with overlap
     ethr =  5.62E-10,  avg # of iterations =  3.0

     negative rho (up, down):  0.000E+00 1.917E-05

     total cpu time spent up to now is       47.9 secs

     total energy              =     -85.54366565 Ry
     Harris-Foulkes estimate   =     -85.54366561 Ry
     estimated scf accuracy    <       0.00000184 Ry

     total magnetization       =     2.00 Bohr mag/cell
     absolute magnetization    =     2.00 Bohr mag/cell

     iteration # 44     ecut=    27.00 Ry     beta=0.25
     Davidson diagonalization with overlap
     ethr =  5.62E-10,  avg # of iterations =  1.0

     negative rho (up, down):  0.000E+00 1.747E-05

     total cpu time spent up to now is       48.9 secs

     total energy              =     -85.54366667 Ry
     Harris-Foulkes estimate   =     -85.54366565 Ry
     estimated scf accuracy    <       0.00000187 Ry

     total magnetization       =     2.00 Bohr mag/cell
     absolute magnetization    =     2.00 Bohr mag/cell

     iteration # 45     ecut=    27.00 Ry     beta=0.25
     Davidson diagonalization with overlap
     ethr =  5.62E-10,  avg # of iterations =  3.0

     negative rho (up, down):  0.000E+00 2.024E-05

     total cpu time spent up to now is       50.0 secs

     total energy              =     -85.54366610 Ry
     Harris-Foulkes estimate   =     -85.54366683 Ry
     estimated scf accuracy    <       0.00000569 Ry

     total magnetization       =     2.00 Bohr mag/cell
     absolute magnetization    =     2.00 Bohr mag/cell

     iteration # 46     ecut=    27.00 Ry     beta=0.25
     Davidson diagonalization with overlap
     ethr =  5.62E-10,  avg # of iterations =  2.0

     negative rho (up, down):  0.000E+00 2.202E-05

     total cpu time spent up to now is       51.1 secs

     total energy              =     -85.54366535 Ry
     Harris-Foulkes estimate   =     -85.54366611 Ry
     estimated scf accuracy    <       0.00000626 Ry

     total magnetization       =     2.00 Bohr mag/cell
     absolute magnetization    =     2.00 Bohr mag/cell

     iteration # 47     ecut=    27.00 Ry     beta=0.25
     Davidson diagonalization with overlap
     ethr =  5.62E-10,  avg # of iterations =  3.0

     negative rho (up, down):  0.000E+00 2.818E-05

     total cpu time spent up to now is       52.2 secs

     total energy              =     -85.54366525 Ry
     Harris-Foulkes estimate   =     -85.54366545 Ry
     estimated scf accuracy    <       0.00000376 Ry

     total magnetization       =     2.00 Bohr mag/cell
     absolute magnetization    =     2.00 Bohr mag/cell

     iteration # 48     ecut=    27.00 Ry     beta=0.25
     Davidson diagonalization with overlap
     ethr =  5.62E-10,  avg # of iterations =  4.0

     negative rho (up, down):  0.000E+00 2.639E-05

     total cpu time spent up to now is       53.2 secs

     total energy              =     -85.54366604 Ry
     Harris-Foulkes estimate   =     -85.54366567 Ry
     estimated scf accuracy    <       0.00000116 Ry

     total magnetization       =     2.00 Bohr mag/cell
     absolute magnetization    =     2.00 Bohr mag/cell

     iteration # 49     ecut=    27.00 Ry     beta=0.25
     Davidson diagonalization with overlap
     ethr =  5.62E-10,  avg # of iterations =  3.0

     negative rho (up, down):  0.000E+00 2.437E-05

     total cpu time spent up to now is       54.3 secs

     total energy              =     -85.54366590 Ry
     Harris-Foulkes estimate   =     -85.54366618 Ry
     estimated scf accuracy    <       0.00000021 Ry

     total magnetization       =     2.00 Bohr mag/cell
     absolute magnetization    =     2.00 Bohr mag/cell

     iteration # 50     ecut=    27.00 Ry     beta=0.25
     Davidson diagonalization with overlap
     ethr =  5.62E-10,  avg # of iterations =  2.0

     negative rho (up, down):  0.000E+00 1.935E-05

     total cpu time spent up to now is       55.4 secs

     total energy              =     -85.54366497 Ry
     Harris-Foulkes estimate   =     -85.54366594 Ry
     estimated scf accuracy    <       0.00000002 Ry

     total magnetization       =     2.00 Bohr mag/cell
     absolute magnetization    =     2.00 Bohr mag/cell

     iteration # 51     ecut=    27.00 Ry     beta=0.25
     Davidson diagonalization with overlap
     ethr =  1.90E-10,  avg # of iterations =  3.0

     negative rho (up, down):  0.000E+00 1.813E-05

     total cpu time spent up to now is       56.5 secs

     total energy              =     -85.54366548 Ry
     Harris-Foulkes estimate   =     -85.54366500 Ry
     estimated scf accuracy    <       0.00000008 Ry

     total magnetization       =     2.00 Bohr mag/cell
     absolute magnetization    =     2.00 Bohr mag/cell

     iteration # 52     ecut=    27.00 Ry     beta=0.25
     Davidson diagonalization with overlap
     ethr =  1.90E-10,  avg # of iterations =  2.5

     negative rho (up, down):  0.000E+00 1.723E-05

     total cpu time spent up to now is       57.6 secs

     total energy              =     -85.54366496 Ry
     Harris-Foulkes estimate   =     -85.54366548 Ry
     estimated scf accuracy    <       0.00000001 Ry

     total magnetization       =     2.00 Bohr mag/cell
     absolute magnetization    =     2.00 Bohr mag/cell

     iteration # 53     ecut=    27.00 Ry     beta=0.25
     Davidson diagonalization with overlap
     ethr =  1.39E-10,  avg # of iterations =  2.0

     negative rho (up, down):  0.000E+00 1.655E-05

     total cpu time spent up to now is       58.6 secs

     total energy              =     -85.54366445 Ry
     Harris-Foulkes estimate   =     -85.54366496 Ry
     estimated scf accuracy    <       0.00000002 Ry

     total magnetization       =     2.00 Bohr mag/cell
     absolute magnetization    =     2.00 Bohr mag/cell

     iteration # 54     ecut=    27.00 Ry     beta=0.25
     Davidson diagonalization with overlap
     ethr =  1.39E-10,  avg # of iterations =  2.0

     negative rho (up, down):  0.000E+00 1.643E-05

     total cpu time spent up to now is       59.7 secs

     total energy              =     -85.54366438 Ry
     Harris-Foulkes estimate   =     -85.54366446 Ry
     estimated scf accuracy    <       0.00000002 Ry

     total magnetization       =     2.00 Bohr mag/cell
     absolute magnetization    =     2.00 Bohr mag/cell

     iteration # 55     ecut=    27.00 Ry     beta=0.25
     Davidson diagonalization with overlap
     ethr =  1.39E-10,  avg # of iterations =  1.5

     negative rho (up, down):  0.000E+00 1.631E-05

     total cpu time spent up to now is       60.8 secs

     total energy              =     -85.54366414 Ry
     Harris-Foulkes estimate   =     -85.54366438 Ry
     estimated scf accuracy    <       0.00000012 Ry

     total magnetization       =     2.00 Bohr mag/cell
     absolute magnetization    =     2.00 Bohr mag/cell

     iteration # 56     ecut=    27.00 Ry     beta=0.25
     Davidson diagonalization with overlap
     ethr =  1.39E-10,  avg # of iterations =  1.5

     negative rho (up, down):  0.000E+00 1.625E-05

     total cpu time spent up to now is       61.9 secs

     total energy              =     -85.54366460 Ry
     Harris-Foulkes estimate   =     -85.54366415 Ry
     estimated scf accuracy    <       0.00000007 Ry

     total magnetization       =     2.00 Bohr mag/cell
     absolute magnetization    =     2.00 Bohr mag/cell

     iteration # 57     ecut=    27.00 Ry     beta=0.25
     Davidson diagonalization with overlap
     ethr =  1.39E-10,  avg # of iterations =  2.0

     negative rho (up, down):  0.000E+00 1.625E-05

     total cpu time spent up to now is       62.9 secs

     total energy              =     -85.54366459 Ry
     Harris-Foulkes estimate   =     -85.54366460 Ry
     estimated scf accuracy    <       0.00000004 Ry

     total magnetization       =     2.00 Bohr mag/cell
     absolute magnetization    =     2.00 Bohr mag/cell

     iteration # 58     ecut=    27.00 Ry     beta=0.25
     Davidson diagonalization with overlap
     ethr =  1.39E-10,  avg # of iterations =  1.0

     negative rho (up, down):  0.000E+00 1.627E-05

     total cpu time spent up to now is       64.0 secs

     total energy              =     -85.54366458 Ry
     Harris-Foulkes estimate   =     -85.54366459 Ry
     estimated scf accuracy    <       0.00000002 Ry

     total magnetization       =     2.00 Bohr mag/cell
     absolute magnetization    =     2.00 Bohr mag/cell

     iteration # 59     ecut=    27.00 Ry     beta=0.25
     Davidson diagonalization with overlap
     ethr =  1.39E-10,  avg # of iterations =  1.0

     negative rho (up, down):  0.000E+00 1.626E-05

     total cpu time spent up to now is       65.1 secs

     total energy              =     -85.54366459 Ry
     Harris-Foulkes estimate   =     -85.54366458 Ry
     estimated scf accuracy    <       0.00000001 Ry

     total magnetization       =     2.00 Bohr mag/cell
     absolute magnetization    =     2.00 Bohr mag/cell

     iteration # 60     ecut=    27.00 Ry     beta=0.25
     Davidson diagonalization with overlap
     ethr =  1.32E-10,  avg # of iterations =  1.0

     negative rho (up, down):  0.000E+00 1.626E-05

     total cpu time spent up to now is       66.2 secs

     total energy              =     -85.54366460 Ry
     Harris-Foulkes estimate   =     -85.54366459 Ry
     estimated scf accuracy    <       0.00000002 Ry

     total magnetization       =     2.00 Bohr mag/cell
     absolute magnetization    =     2.00 Bohr mag/cell

     iteration # 61     ecut=    27.00 Ry     beta=0.25
     Davidson diagonalization with overlap
     ethr =  1.32E-10,  avg # of iterations =  1.0

     negative rho (up, down):  0.000E+00 1.625E-05

     total cpu time spent up to now is       67.2 secs

     total energy              =     -85.54366460 Ry
     Harris-Foulkes estimate   =     -85.54366460 Ry
     estimated scf accuracy    <       0.00000002 Ry

     total magnetization       =     2.00 Bohr mag/cell
     absolute magnetization    =     2.00 Bohr mag/cell

     iteration # 62     ecut=    27.00 Ry     beta=0.25
     Davidson diagonalization with overlap
     ethr =  1.32E-10,  avg # of iterations =  1.5

     negative rho (up, down):  0.000E+00 1.628E-05

     total cpu time spent up to now is       68.3 secs

     total energy              =     -85.54366472 Ry
     Harris-Foulkes estimate   =     -85.54366460 Ry
     estimated scf accuracy    <       0.00000004 Ry

     total magnetization       =     2.00 Bohr mag/cell
     absolute magnetization    =     2.00 Bohr mag/cell

     iteration # 63     ecut=    27.00 Ry     beta=0.25
     Davidson diagonalization with overlap
     ethr =  1.32E-10,  avg # of iterations =  1.5

     negative rho (up, down):  0.000E+00 1.630E-05

     total cpu time spent up to now is       69.4 secs

     total energy              =     -85.54366469 Ry
     Harris-Foulkes estimate   =     -85.54366472 Ry
     estimated scf accuracy    <       0.00000002 Ry

     total magnetization       =     2.00 Bohr mag/cell
     absolute magnetization    =     2.00 Bohr mag/cell

     iteration # 64     ecut=    27.00 Ry     beta=0.25
     Davidson diagonalization with overlap
     ethr =  1.32E-10,  avg # of iterations =  2.0

     negative rho (up, down):  0.000E+00 1.624E-05
 
     Magnetic moment per site:
     atom:    1    charge:    9.9592    magn:    1.9637    constr:    0.0000

     total cpu time spent up to now is       70.5 secs

     End of self-consistent calculation

 ------ SPIN UP ------------


          k = 0.0000 0.0000 0.0000 (  3310 PWs)   bands (ev):

    -4.5575  -4.7329  -4.7288  -4.7289  -4.7331  -4.7287

 ------ SPIN DOWN ----------


          k = 0.0000 0.0000 0.0000 (  3310 PWs)   bands (ev):

    -3.5702  -3.5978  -3.5936  -3.5936  -3.5979  -3.5936

!    total energy              =     -85.54366459 Ry
     Harris-Foulkes estimate   =     -85.54366470 Ry
     estimated scf accuracy    <          8.4E-09 Ry

     The total energy is the sum of the following terms:

     one-electron contribution =     -86.77887817 Ry
     hartree contribution      =      51.54430827 Ry
     xc contribution           =     -30.04268413 Ry
     ewald contribution        =     -20.26641057 Ry

     total magnetization       =     2.00 Bohr mag/cell
     absolute magnetization    =     2.00 Bohr mag/cell

     convergence has been achieved in  64 iterations

     Writing output data file pwscf.save
 
     init_run     :      1.36s CPU      1.43s WALL (       1 calls)
     electrons    :     63.74s CPU     69.00s WALL (       1 calls)

     Called by init_run:
     wfcinit      :      0.01s CPU      0.02s WALL (       1 calls)
     potinit      :      0.46s CPU      0.48s WALL (       1 calls)

     Called by electrons:
     c_bands      :      2.70s CPU      2.74s WALL (      64 calls)
     sum_band     :     25.32s CPU     27.56s WALL (      64 calls)
     v_of_rho     :     24.16s CPU     24.61s WALL (      65 calls)
     newd         :      8.24s CPU     10.76s WALL (      65 calls)
     mix_rho      :      2.44s CPU      2.46s WALL (      64 calls)

     Called by c_bands:
     init_us_2    :      0.16s CPU      0.16s WALL (     260 calls)
     regterg      :      2.17s CPU      2.20s WALL (     128 calls)

     Called by sum_band:
     sum_band:bec :      0.00s CPU      0.00s WALL (     128 calls)
     addusdens    :     21.97s CPU     24.19s WALL (      64 calls)

     Called by *egterg:
     h_psi        :      1.89s CPU      1.93s WALL (     423 calls)
     s_psi        :      0.04s CPU      0.03s WALL (     425 calls)
     g_psi        :      0.03s CPU      0.03s WALL (     293 calls)
     rdiaghg      :      0.05s CPU      0.05s WALL (     421 calls)

     Called by h_psi:
     h_psi:pot    :      1.89s CPU      1.91s WALL (     423 calls)
     h_psi:calbec :      0.08s CPU      0.06s WALL (     423 calls)
     add_vuspsi   :      0.02s CPU      0.03s WALL (     423 calls)

     General routines
     calbec       :      0.10s CPU      0.08s WALL (     553 calls)
     fft          :     11.52s CPU     11.71s WALL (    2005 calls)
     ffts         :      0.32s CPU      0.31s WALL (     258 calls)
     fftw         :      1.60s CPU      1.63s WALL (    2520 calls)
     interpolate  :      2.04s CPU      2.05s WALL (     258 calls)
     davcio       :      0.00s CPU      0.00s WALL (       2 calls)
 
     Parallel routines
     fft_scatter  :      4.96s CPU      5.14s WALL (    4783 calls)
 
     PWSCF        :  1m 5.19s CPU     1m10.57s WALL

 
   This run was terminated on:  16:12:25  18Aug2016            

=------------------------------------------------------------------------------=
   JOB DONE.
=------------------------------------------------------------------------------=
