
     Program PWSCF v.5.4.0 (svn rev. 12547M) starts on 29Jun2016 at 17:50:37 

     This program is part of the open-source Quantum ESPRESSO suite
     for quantum simulation of materials; please cite
         "P. Giannozzi et al., J. Phys.:Condens. Matter 21 395502 (2009);
          URL http://www.quantum-espresso.org", 
     in publications or presentations arising from this work. More details at
     http://www.quantum-espresso.org/quote
 
           HOST :    x86_64-pc-linux-gnu
           ARCH :    x86_64
             CC :    icc
            CPP :    cpp
            F90 :    gfortran
            F77 :    gfortran
         DFLAGS :    -D__GFORTRAN -D__STD_F95 -D__DFTI -D__MPI -D__PARA -D__HDF5
      BLAS LIBS :    -lmkl_gf_lp64  -lmkl_sequential -lmkl_core
    LAPACK LIBS :    
       FFT LIBS :    
      MASS LIBS :    

     Parallel version (MPI), running on     2 processors
     R & G space division:  proc/nbgrp/npool/nimage =       2
     Waiting for input...
     Reading input from standard input
     Message from routine read_cards :
     DEPRECATED: no units specified in ATOMIC_POSITIONS card
     Message from routine read_cards :
     ATOMIC_POSITIONS: units set to alat

     Current dimensions of program PWSCF are:
     Max number of different atomic species (ntypx) = 10
     Max number of k-points (npk) =  40000
     Max angular momentum in pseudopotentials (lmaxx) =  3
               file Ni.pbe-nd-rrkjus.UPF: wavefunction(s)  4S renormalized

     gamma-point specific algorithms are used

     Subspace diagonalization in iterative solution of the eigenvalue problem:
     a serial algorithm will be used

 
     Parallelization info
     --------------------
     sticks:   dense  smooth     PW     G-vecs:    dense   smooth      PW
     Min        2336     842    210               120328    25994    3306
     Max        2341     843    211               120329    26041    3313
     Sum        4677    1685    421               240657    52035    6619
     Tot        2339     843    211
 
     Generating pointlists ...
     new r_m :   0.4125 (alat units)  5.7750 (a.u.) for type    1


     bravais-lattice index     =            1
     lattice parameter (alat)  =      14.0000  a.u.
     unit-cell volume          =    2744.0000 (a.u.)^3
     number of atoms/cell      =            1
     number of atomic types    =            1
     number of electrons       =        10.00
     number of Kohn-Sham states=            6
     kinetic-energy cutoff     =      27.0000  Ry
     charge density cutoff     =     300.0000  Ry
     convergence threshold     =      1.0E-08
     mixing beta               =       0.2500
     number of iterations used =            8  plain     mixing
     Exchange-correlation      =  SLA  PW   PBE  PBE ( 1  4  3  4 0 0)

     celldm(1)=  14.000000  celldm(2)=   0.000000  celldm(3)=   0.000000
     celldm(4)=   0.000000  celldm(5)=   0.000000  celldm(6)=   0.000000

     crystal axes: (cart. coord. in units of alat)
               a(1) = (   1.000000   0.000000   0.000000 )  
               a(2) = (   0.000000   1.000000   0.000000 )  
               a(3) = (   0.000000   0.000000   1.000000 )  

     reciprocal axes: (cart. coord. in units 2 pi/alat)
               b(1) = (  1.000000  0.000000  0.000000 )  
               b(2) = (  0.000000  1.000000  0.000000 )  
               b(3) = (  0.000000  0.000000  1.000000 )  


     PseudoPot. # 1 for Ni read from file:
     /home/nvarini/espresso_hdf5/espresso/pseudo/Ni.pbe-nd-rrkjus.UPF
     MD5 check sum: 8081f0a005c9a5470caab1a58e82ecb2
     Pseudo is Ultrasoft + core correction, Zval = 10.0
     Generated by new atomic code, or converted to UPF format
     Using radial grid of 1203 points,  6 beta functions with: 
                l(1) =   0
                l(2) =   0
                l(3) =   1
                l(4) =   1
                l(5) =   2
                l(6) =   2
     Q(r) pseudized with 0 coefficients 


     atomic species   valence    mass     pseudopotential
        Ni            10.00    58.69340     Ni( 1.00)

     Starting magnetic structure 
     atomic species   magnetization
        Ni           0.500

     No symmetry found



   Cartesian axes

     site n.     atom                  positions (alat units)
         1           Ni  tau(   1) = (   0.0000000   0.0000000   0.0000000  )

     number of k points=     1
                       cart. coord. in units 2pi/alat
        k(    1) = (   0.0000000   0.0000000   0.0000000), wk =   1.0000000

     Dense  grid:   120329 G-vectors     FFT dimensions: (  80,  80,  80)

     Smooth grid:    26018 G-vectors     FFT dimensions: (  48,  48,  48)

     Occupations read from input 

      Spin-up

        1.0000   1.0000   1.0000   1.0000   1.0000   1.0000

      Spin-down

        0.0000   0.8000   0.8000   0.8000   0.8000   0.8000

     Largest allocated arrays     est. size (Mb)     dimensions
        Kohn-Sham Wavefunctions         0.15 Mb     (    1657,    6)
        Atomic wavefunctions            0.15 Mb     (    1657,    6)
        NL pseudopotentials             0.46 Mb     (    1657,   18)
        Each V/rho on FFT grid          7.81 Mb     (  256000,   2)
        Each G-vector array             0.46 Mb     (   60165)
        G-vector shells                 0.01 Mb     (    1242)
     Largest temporary arrays     est. size (Mb)     dimensions
        Auxiliary wavefunctions         0.30 Mb     (    1657,   24)
        Each subspace H/S matrix        0.00 Mb     (      24,   24)
        Each <psi_i|beta_j> matrix      0.00 Mb     (      18,    6)
        Arrays for rho mixing          31.25 Mb     (  256000,    8)

     Check: negative/imaginary core charge=   -0.000019    0.000000

     Initial potential from superposition of free atoms

     starting charge    9.99954, renormalised to   10.00000

     negative rho (up, down):  8.749E-06 2.916E-06
     Starting wfc are    6 atomic wfcs

     total cpu time spent up to now is        1.5 secs

     per-process dynamical memory:    73.3 Mb

     Self-consistent Calculation

     iteration #  1     ecut=    27.00 Ry     beta=0.25
     Davidson diagonalization with overlap
     ethr =  1.00E-02,  avg # of iterations =  1.0

     negative rho (up, down):  3.038E-06 3.694E-06

     total cpu time spent up to now is        2.6 secs

     total energy              =     -85.43445501 Ry
     Harris-Foulkes estimate   =     -85.35918088 Ry
     estimated scf accuracy    <       0.24439240 Ry

     total magnetization       =     2.00 Bohr mag/cell
     absolute magnetization    =     2.00 Bohr mag/cell

     iteration #  2     ecut=    27.00 Ry     beta=0.25
     Davidson diagonalization with overlap
     ethr =  2.44E-03,  avg # of iterations =  1.0

     negative rho (up, down):  1.951E-02 3.800E-02

     total cpu time spent up to now is        3.7 secs

     total energy              =     -85.53217082 Ry
     Harris-Foulkes estimate   =     -85.43632703 Ry
     estimated scf accuracy    <       0.14520811 Ry

     total magnetization       =     2.00 Bohr mag/cell
     absolute magnetization    =     2.00 Bohr mag/cell

     iteration #  3     ecut=    27.00 Ry     beta=0.25
     Davidson diagonalization with overlap
     ethr =  1.45E-03,  avg # of iterations =  1.0

     negative rho (up, down):  1.323E-02 2.866E-02

     total cpu time spent up to now is        4.8 secs

     total energy              =     -85.53994589 Ry
     Harris-Foulkes estimate   =     -85.53885002 Ry
     estimated scf accuracy    <       0.00029035 Ry

     total magnetization       =     2.00 Bohr mag/cell
     absolute magnetization    =     2.00 Bohr mag/cell

     iteration #  4     ecut=    27.00 Ry     beta=0.25
     Davidson diagonalization with overlap
     ethr =  2.90E-06,  avg # of iterations =  3.5

     negative rho (up, down):  8.007E-03 2.236E-02

     total cpu time spent up to now is        5.9 secs

     total energy              =     -85.54142181 Ry
     Harris-Foulkes estimate   =     -85.54057770 Ry
     estimated scf accuracy    <       0.00007027 Ry

     total magnetization       =     2.00 Bohr mag/cell
     absolute magnetization    =     2.00 Bohr mag/cell

     iteration #  5     ecut=    27.00 Ry     beta=0.25
     Davidson diagonalization with overlap
     ethr =  7.03E-07,  avg # of iterations =  2.5

     negative rho (up, down):  4.621E-03 1.651E-02

     total cpu time spent up to now is        7.0 secs

     total energy              =     -85.54224626 Ry
     Harris-Foulkes estimate   =     -85.54146128 Ry
     estimated scf accuracy    <       0.00001709 Ry

     total magnetization       =     2.00 Bohr mag/cell
     absolute magnetization    =     2.00 Bohr mag/cell

     iteration #  6     ecut=    27.00 Ry     beta=0.25
     Davidson diagonalization with overlap
     ethr =  1.71E-07,  avg # of iterations =  3.5

     negative rho (up, down):  2.759E-03 1.215E-02

     total cpu time spent up to now is        8.1 secs

     total energy              =     -85.54287042 Ry
     Harris-Foulkes estimate   =     -85.54226098 Ry
     estimated scf accuracy    <       0.00000845 Ry

     total magnetization       =     2.00 Bohr mag/cell
     absolute magnetization    =     2.00 Bohr mag/cell

     iteration #  7     ecut=    27.00 Ry     beta=0.25
     Davidson diagonalization with overlap
     ethr =  8.45E-08,  avg # of iterations =  2.0

     negative rho (up, down):  1.492E-03 8.454E-03

     total cpu time spent up to now is        9.2 secs

     total energy              =     -85.54322467 Ry
     Harris-Foulkes estimate   =     -85.54287765 Ry
     estimated scf accuracy    <       0.00000292 Ry

     total magnetization       =     2.00 Bohr mag/cell
     absolute magnetization    =     2.00 Bohr mag/cell

     iteration #  8     ecut=    27.00 Ry     beta=0.25
     Davidson diagonalization with overlap
     ethr =  2.92E-08,  avg # of iterations =  3.5

     negative rho (up, down):  7.855E-04 5.804E-03

     total cpu time spent up to now is       10.4 secs

     total energy              =     -85.54339382 Ry
     Harris-Foulkes estimate   =     -85.54322700 Ry
     estimated scf accuracy    <       0.00000014 Ry

     total magnetization       =     2.00 Bohr mag/cell
     absolute magnetization    =     2.00 Bohr mag/cell

     iteration #  9     ecut=    27.00 Ry     beta=0.25
     Davidson diagonalization with overlap
     ethr =  1.37E-09,  avg # of iterations =  4.0

     negative rho (up, down):  3.889E-04 3.983E-03

     total cpu time spent up to now is       11.5 secs

     total energy              =     -85.54350743 Ry
     Harris-Foulkes estimate   =     -85.54339460 Ry
     estimated scf accuracy    <       0.00000046 Ry

     total magnetization       =     2.00 Bohr mag/cell
     absolute magnetization    =     2.00 Bohr mag/cell

     iteration # 10     ecut=    27.00 Ry     beta=0.25
     Davidson diagonalization with overlap
     ethr =  1.37E-09,  avg # of iterations =  3.5

     negative rho (up, down):  1.832E-04 2.720E-03

     total cpu time spent up to now is       12.6 secs

     total energy              =     -85.54356721 Ry
     Harris-Foulkes estimate   =     -85.54350782 Ry
     estimated scf accuracy    <       0.00000090 Ry

     total magnetization       =     2.00 Bohr mag/cell
     absolute magnetization    =     2.00 Bohr mag/cell

     iteration # 11     ecut=    27.00 Ry     beta=0.25
     Davidson diagonalization with overlap
     ethr =  1.37E-09,  avg # of iterations =  3.5

     negative rho (up, down):  8.346E-05 1.818E-03

     total cpu time spent up to now is       13.8 secs

     total energy              =     -85.54360610 Ry
     Harris-Foulkes estimate   =     -85.54356741 Ry
     estimated scf accuracy    <       0.00000114 Ry

     total magnetization       =     2.00 Bohr mag/cell
     absolute magnetization    =     2.00 Bohr mag/cell

     iteration # 12     ecut=    27.00 Ry     beta=0.25
     Davidson diagonalization with overlap
     ethr =  1.37E-09,  avg # of iterations =  3.5

     negative rho (up, down):  3.702E-05 1.241E-03

     total cpu time spent up to now is       14.9 secs

     total energy              =     -85.54362847 Ry
     Harris-Foulkes estimate   =     -85.54360623 Ry
     estimated scf accuracy    <       0.00000228 Ry

     total magnetization       =     2.00 Bohr mag/cell
     absolute magnetization    =     2.00 Bohr mag/cell

     iteration # 13     ecut=    27.00 Ry     beta=0.25
     Davidson diagonalization with overlap
     ethr =  1.37E-09,  avg # of iterations =  3.5

     negative rho (up, down):  1.517E-05 8.685E-04

     total cpu time spent up to now is       16.1 secs

     total energy              =     -85.54364520 Ry
     Harris-Foulkes estimate   =     -85.54362859 Ry
     estimated scf accuracy    <       0.00000094 Ry

     total magnetization       =     2.00 Bohr mag/cell
     absolute magnetization    =     2.00 Bohr mag/cell

     iteration # 14     ecut=    27.00 Ry     beta=0.25
     Davidson diagonalization with overlap
     ethr =  1.37E-09,  avg # of iterations =  3.5

     negative rho (up, down):  5.215E-06 5.980E-04

     total cpu time spent up to now is       17.2 secs

     total energy              =     -85.54365386 Ry
     Harris-Foulkes estimate   =     -85.54364541 Ry
     estimated scf accuracy    <       0.00000001 Ry

     total magnetization       =     2.00 Bohr mag/cell
     absolute magnetization    =     2.00 Bohr mag/cell

     iteration # 15     ecut=    27.00 Ry     beta=0.25
     Davidson diagonalization with overlap
     ethr =  1.46E-10,  avg # of iterations =  3.5

     negative rho (up, down):  1.570E-06 3.969E-04

     total cpu time spent up to now is       18.3 secs

     total energy              =     -85.54365955 Ry
     Harris-Foulkes estimate   =     -85.54365390 Ry
     estimated scf accuracy    <       0.00000005 Ry

     total magnetization       =     2.00 Bohr mag/cell
     absolute magnetization    =     2.00 Bohr mag/cell

     iteration # 16     ecut=    27.00 Ry     beta=0.25
     Davidson diagonalization with overlap
     ethr =  1.46E-10,  avg # of iterations =  3.0

     negative rho (up, down):  0.000E+00 1.624E-05
 
     Magnetic moment per site:
     atom:    1    charge:    9.9592    magn:    1.9637    constr:    0.0000

     total cpu time spent up to now is       19.4 secs

     End of self-consistent calculation

 ------ SPIN UP ------------


          k = 0.0000 0.0000 0.0000 (  3310 PWs)   bands (ev):

    -4.5581  -4.7341  -4.7298  -4.7298  -4.7337  -4.7295

 ------ SPIN DOWN ----------


          k = 0.0000 0.0000 0.0000 (  3310 PWs)   bands (ev):

    -3.5729  -3.5990  -3.5947  -3.5947  -3.5988  -3.5946

!    total energy              =     -85.54366425 Ry
     Harris-Foulkes estimate   =     -85.54365957 Ry
     estimated scf accuracy    <          3.3E-09 Ry

     The total energy is the sum of the following terms:

     one-electron contribution =     -86.77816507 Ry
     hartree contribution      =      51.54341280 Ry
     xc contribution           =     -30.04250141 Ry
     ewald contribution        =     -20.26641057 Ry

     total magnetization       =     2.00 Bohr mag/cell
     absolute magnetization    =     2.00 Bohr mag/cell

     convergence has been achieved in  16 iterations

     Writing output data file pwscf.save
 
     init_run     :      1.35s CPU      1.46s WALL (       1 calls)
     electrons    :     16.56s CPU     17.95s WALL (       1 calls)

     Called by init_run:
     wfcinit      :      0.02s CPU      0.02s WALL (       1 calls)
     potinit      :      0.44s CPU      0.48s WALL (       1 calls)

     Called by electrons:
     c_bands      :      0.77s CPU      0.77s WALL (      16 calls)
     sum_band     :      6.79s CPU      7.39s WALL (      16 calls)
     v_of_rho     :      6.26s CPU      6.36s WALL (      17 calls)
     newd         :      2.33s CPU      3.08s WALL (      17 calls)
     mix_rho      :      0.55s CPU      0.55s WALL (      16 calls)

     Called by c_bands:
     init_us_2    :      0.05s CPU      0.04s WALL (      68 calls)
     regterg      :      0.64s CPU      0.64s WALL (      32 calls)

     Called by sum_band:
     sum_band:bec :      0.00s CPU      0.00s WALL (      32 calls)
     addusdens    :      5.97s CPU      6.57s WALL (      16 calls)

     Called by *egterg:
     h_psi        :      0.56s CPU      0.56s WALL (     126 calls)
     s_psi        :      0.01s CPU      0.01s WALL (     128 calls)
     g_psi        :      0.01s CPU      0.01s WALL (      92 calls)
     rdiaghg      :      0.02s CPU      0.02s WALL (     124 calls)

     Called by h_psi:
     add_vuspsi   :      0.01s CPU      0.01s WALL (     126 calls)

     General routines
     calbec       :      0.03s CPU      0.02s WALL (     160 calls)
     fft          :      3.47s CPU      3.56s WALL (     517 calls)
     ffts         :      0.07s CPU      0.08s WALL (      66 calls)
     fftw         :      0.46s CPU      0.46s WALL (     740 calls)
     interpolate  :      0.51s CPU      0.51s WALL (      66 calls)
     davcio       :      0.00s CPU      0.00s WALL (       2 calls)
 
     Parallel routines
     fft_scatter  :      1.78s CPU      1.86s WALL (    1323 calls)
 
     PWSCF        :    17.98s CPU        19.54s WALL

 
   This run was terminated on:  17:50:56  29Jun2016            

=------------------------------------------------------------------------------=
   JOB DONE.
=------------------------------------------------------------------------------=
