
     Program PWSCF v.5.4.0 (svn rev. 12590M) starts on 21Jul2016 at 15:34:26 

     This program is part of the open-source Quantum ESPRESSO suite
     for quantum simulation of materials; please cite
         "P. Giannozzi et al., J. Phys.:Condens. Matter 21 395502 (2009);
          URL http://www.quantum-espresso.org", 
     in publications or presentations arising from this work. More details at
     http://www.quantum-espresso.org/quote
 
           HOST :    x86_64-pc-linux-gnu
           ARCH :    x86_64
             CC :    icc
            CPP :    cpp
            F90 :    gfortran
            F77 :    gfortran
         DFLAGS :    -D__GFORTRAN -D__STD_F95 -D__DFTI -D__MPI -D__PARA -D__HDF5
      BLAS LIBS :    -lmkl_gf_lp64  -lmkl_sequential -lmkl_core
    LAPACK LIBS :    
       FFT LIBS :    
      MASS LIBS :    

     Parallel version (MPI), running on     2 processors
     R & G space division:  proc/nbgrp/npool/nimage =       2
     Waiting for input...
     Reading input from standard input
     Message from routine read_cards :
     DEPRECATED: no units specified in ATOMIC_POSITIONS card
     Message from routine read_cards :
     ATOMIC_POSITIONS: units set to alat

     Current dimensions of program PWSCF are:
     Max number of different atomic species (ntypx) = 10
     Max number of k-points (npk) =  40000
     Max angular momentum in pseudopotentials (lmaxx) =  3
               file O.pbe-rrkjus.UPF: wavefunction(s)  2S renormalized

     Subspace diagonalization in iterative solution of the eigenvalue problem:
     a serial algorithm will be used

 
     Parallelization info
     --------------------
     sticks:   dense  smooth     PW     G-vecs:    dense   smooth      PW
     Min        1682     842    210                73494    26012    3308
     Max        1683     843    211                73495    26023    3311
     Sum        3365    1685    421               146989    52035    6619
 
     Generating pointlists ...
     new r_m :   0.4125 (alat units)  5.7750 (a.u.) for type    1


     bravais-lattice index     =            1
     lattice parameter (alat)  =      14.0000  a.u.
     unit-cell volume          =    2744.0000 (a.u.)^3
     number of atoms/cell      =            1
     number of atomic types    =            1
     number of electrons       =         6.00
     number of Kohn-Sham states=            6
     kinetic-energy cutoff     =      27.0000  Ry
     charge density cutoff     =     216.0000  Ry
     convergence threshold     =      1.0E-08
     mixing beta               =       0.2500
     number of iterations used =            8  plain     mixing
     Exchange-correlation      =  SLA  PW   PBE  PBE ( 1  4  3  4 0 0)

     celldm(1)=  14.000000  celldm(2)=   0.000000  celldm(3)=   0.000000
     celldm(4)=   0.000000  celldm(5)=   0.000000  celldm(6)=   0.000000

     crystal axes: (cart. coord. in units of alat)
               a(1) = (   1.000000   0.000000   0.000000 )  
               a(2) = (   0.000000   1.000000   0.000000 )  
               a(3) = (   0.000000   0.000000   1.000000 )  

     reciprocal axes: (cart. coord. in units 2 pi/alat)
               b(1) = (  1.000000  0.000000  0.000000 )  
               b(2) = (  0.000000  1.000000  0.000000 )  
               b(3) = (  0.000000  0.000000  1.000000 )  


     PseudoPot. # 1 for O  read from file:
     /home/nvarini/espresso_hdf5/espresso/pseudo/O.pbe-rrkjus.UPF
     MD5 check sum: 390ba29e75625707450f3bd3f0eb6be9
     Pseudo is Ultrasoft, Zval =  6.0
     Generated by new atomic code, or converted to UPF format
     Using radial grid of 1269 points,  4 beta functions with: 
                l(1) =   0
                l(2) =   0
                l(3) =   1
                l(4) =   1
     Q(r) pseudized with 0 coefficients 


     atomic species   valence    mass     pseudopotential
        O              6.00    15.99994     O ( 1.00)

     Starting magnetic structure 
     atomic species   magnetization
        O            0.500

     No symmetry found



   Cartesian axes

     site n.     atom                  positions (alat units)
         1           O   tau(   1) = (   0.0000000   0.0000000   0.0000000  )

     number of k points=     1
                       cart. coord. in units 2pi/alat
        k(    1) = (   0.0000000   0.0000000   0.0000000), wk =   1.0000000

     Dense  grid:   146989 G-vectors     FFT dimensions: (  72,  72,  72)

     Smooth grid:    52035 G-vectors     FFT dimensions: (  48,  48,  48)

     Occupations read from input 

      Spin-up

        1.0000   1.0000   1.0000   1.0000   0.0000   0.0000

      Spin-down

        1.0000   0.3333   0.3333   0.3333   0.0000   0.0000

     Largest allocated arrays     est. size (Mb)     dimensions
        Kohn-Sham Wavefunctions         0.30 Mb     (    3308,    6)
        NL pseudopotentials             0.40 Mb     (    3308,    8)
        Each V/rho on FFT grid          5.70 Mb     (  186624,   2)
        Each G-vector array             0.56 Mb     (   73494)
        G-vector shells                 0.01 Mb     (     896)
     Largest temporary arrays     est. size (Mb)     dimensions
        Auxiliary wavefunctions         1.21 Mb     (    3308,   24)
        Each subspace H/S matrix        0.01 Mb     (      24,   24)
        Each <psi_i|beta_j> matrix      0.00 Mb     (       8,    6)
        Arrays for rho mixing          22.78 Mb     (  186624,    8)

     Initial potential from superposition of free atoms

     starting charge    6.00000, renormalised to    6.00000

     negative rho (up, down):  2.318E-05 7.728E-06
     Starting wfc are    4 randomized atomic wfcs +    2 random wfc

     total cpu time spent up to now is        0.8 secs

     per-process dynamical memory:    52.4 Mb

     Self-consistent Calculation

     iteration #  1     ecut=    27.00 Ry     beta=0.25
     Davidson diagonalization with overlap
     ethr =  1.00E-02,  avg # of iterations =  5.5

     Threshold (ethr) on eigenvalues was too large:
     Diagonalizing with lowered threshold

     Davidson diagonalization with overlap
     ethr =  2.23E-04,  avg # of iterations =  2.0

     negative rho (up, down):  3.246E-05 1.499E-05

     total cpu time spent up to now is        1.6 secs

     total energy              =     -31.48807522 Ry
     Harris-Foulkes estimate   =     -31.47571229 Ry
     estimated scf accuracy    <       0.01337788 Ry

     total magnetization       =     2.00 Bohr mag/cell
     absolute magnetization    =     2.00 Bohr mag/cell

     iteration #  2     ecut=    27.00 Ry     beta=0.25
     Davidson diagonalization with overlap
     ethr =  2.23E-04,  avg # of iterations =  1.0

     negative rho (up, down):  9.840E-04 1.101E-03

     total cpu time spent up to now is        2.1 secs

     total energy              =     -31.50377116 Ry
     Harris-Foulkes estimate   =     -31.48813737 Ry
     estimated scf accuracy    <       0.00756512 Ry

     total magnetization       =     2.00 Bohr mag/cell
     absolute magnetization    =     2.00 Bohr mag/cell

     iteration #  3     ecut=    27.00 Ry     beta=0.25
     Davidson diagonalization with overlap
     ethr =  1.26E-04,  avg # of iterations =  1.0

     negative rho (up, down):  6.185E-04 9.297E-04

     total cpu time spent up to now is        2.7 secs

     total energy              =     -31.50423153 Ry
     Harris-Foulkes estimate   =     -31.50425745 Ry
     estimated scf accuracy    <       0.00024257 Ry

     total magnetization       =     2.00 Bohr mag/cell
     absolute magnetization    =     2.00 Bohr mag/cell

     iteration #  4     ecut=    27.00 Ry     beta=0.25
     Davidson diagonalization with overlap
     ethr =  4.04E-06,  avg # of iterations =  8.5

     negative rho (up, down):  4.133E-04 5.729E-04

     total cpu time spent up to now is        3.2 secs

     total energy              =     -31.50433604 Ry
     Harris-Foulkes estimate   =     -31.50430303 Ry
     estimated scf accuracy    <       0.00001044 Ry

     total magnetization       =     2.00 Bohr mag/cell
     absolute magnetization    =     2.00 Bohr mag/cell

     iteration #  5     ecut=    27.00 Ry     beta=0.25
     Davidson diagonalization with overlap
     ethr =  1.74E-07,  avg # of iterations =  2.0

     negative rho (up, down):  1.859E-04 3.243E-04

     total cpu time spent up to now is        3.8 secs

     total energy              =     -31.50434175 Ry
     Harris-Foulkes estimate   =     -31.50433781 Ry
     estimated scf accuracy    <       0.00000623 Ry

     total magnetization       =     2.00 Bohr mag/cell
     absolute magnetization    =     2.00 Bohr mag/cell

     iteration #  6     ecut=    27.00 Ry     beta=0.25
     Davidson diagonalization with overlap
     ethr =  1.04E-07,  avg # of iterations =  2.0

     negative rho (up, down):  1.238E-04 2.216E-04

     total cpu time spent up to now is        4.3 secs

     total energy              =     -31.50434268 Ry
     Harris-Foulkes estimate   =     -31.50434422 Ry
     estimated scf accuracy    <       0.00000062 Ry

     total magnetization       =     2.00 Bohr mag/cell
     absolute magnetization    =     2.00 Bohr mag/cell

     iteration #  7     ecut=    27.00 Ry     beta=0.25
     Davidson diagonalization with overlap
     ethr =  1.03E-08,  avg # of iterations =  1.5

     negative rho (up, down):  1.022E-04 1.585E-04

     total cpu time spent up to now is        4.9 secs

     total energy              =     -31.50434198 Ry
     Harris-Foulkes estimate   =     -31.50434288 Ry
     estimated scf accuracy    <       0.00000004 Ry

     total magnetization       =     2.00 Bohr mag/cell
     absolute magnetization    =     2.00 Bohr mag/cell

     iteration #  8     ecut=    27.00 Ry     beta=0.25
     Davidson diagonalization with overlap
     ethr =  7.16E-10,  avg # of iterations =  1.5

     negative rho (up, down):  9.061E-05 1.150E-04

     total cpu time spent up to now is        5.4 secs

     total energy              =     -31.50434186 Ry
     Harris-Foulkes estimate   =     -31.50434198 Ry
     estimated scf accuracy    <       0.00000002 Ry

     total magnetization       =     2.00 Bohr mag/cell
     absolute magnetization    =     2.00 Bohr mag/cell

     iteration #  9     ecut=    27.00 Ry     beta=0.25
     Davidson diagonalization with overlap
     ethr =  3.75E-10,  avg # of iterations =  2.0

     negative rho (up, down):  8.019E-05 4.386E-05
 
     Magnetic moment per site:
     atom:    1    charge:    5.9995    magn:    2.0001    constr:    0.0000

     total cpu time spent up to now is        6.0 secs

     End of self-consistent calculation

 ------ SPIN UP ------------


          k = 0.0000 0.0000 0.0000 (  6619 PWs)   bands (ev):

   -25.0596 -10.0345 -10.0345 -10.0345  -0.5792   2.1167

 ------ SPIN DOWN ----------


          k = 0.0000 0.0000 0.0000 (  6619 PWs)   bands (ev):

   -21.6727  -6.8527  -6.8527  -6.8527  -0.4733   2.2829

     highest occupied, lowest unoccupied level (ev):    -6.8527   -0.5792

!    total energy              =     -31.50434356 Ry
     Harris-Foulkes estimate   =     -31.50434187 Ry
     estimated scf accuracy    <          3.6E-11 Ry

     The total energy is the sum of the following terms:

     one-electron contribution =     -37.61406822 Ry
     hartree contribution      =      20.01357216 Ry
     xc contribution           =      -6.60793966 Ry
     ewald contribution        =      -7.29590784 Ry

     total magnetization       =     2.00 Bohr mag/cell
     absolute magnetization    =     2.00 Bohr mag/cell

     convergence has been achieved in   9 iterations

     Writing output data file pwscf.save
 
     init_run     :      0.72s CPU      0.79s WALL (       1 calls)
     electrons    :      4.95s CPU      5.17s WALL (       1 calls)

     Called by init_run:
     wfcinit      :      0.03s CPU      0.03s WALL (       1 calls)
     potinit      :      0.29s CPU      0.32s WALL (       1 calls)

     Called by electrons:
     c_bands      :      0.65s CPU      0.66s WALL (      10 calls)
     sum_band     :      1.37s CPU      1.46s WALL (      10 calls)
     v_of_rho     :      2.41s CPU      2.44s WALL (      10 calls)
     newd         :      0.41s CPU      0.51s WALL (      10 calls)
     mix_rho      :      0.24s CPU      0.25s WALL (      10 calls)

     Called by c_bands:
     init_us_2    :      0.03s CPU      0.03s WALL (      42 calls)
     cegterg      :      0.61s CPU      0.61s WALL (      20 calls)

     Called by sum_band:
     sum_band:bec :      0.00s CPU      0.00s WALL (      20 calls)
     addusdens    :      0.92s CPU      1.01s WALL (      10 calls)

     Called by *egterg:
     h_psi        :      0.53s CPU      0.53s WALL (      76 calls)
     s_psi        :      0.01s CPU      0.01s WALL (      76 calls)
     g_psi        :      0.01s CPU      0.01s WALL (      54 calls)
     cdiaghg      :      0.01s CPU      0.01s WALL (      72 calls)

     Called by h_psi:
     add_vuspsi   :      0.01s CPU      0.01s WALL (      76 calls)

     General routines
     calbec       :      0.02s CPU      0.02s WALL (      96 calls)
     fft          :      1.26s CPU      1.28s WALL (     307 calls)
     ffts         :      0.04s CPU      0.04s WALL (      40 calls)
     fftw         :      0.48s CPU      0.48s WALL (     764 calls)
     interpolate  :      0.23s CPU      0.23s WALL (      40 calls)
 
     Parallel routines
     fft_scatter  :      0.55s CPU      0.57s WALL (    1111 calls)
 
     PWSCF        :     5.74s CPU         6.06s WALL

 
   This run was terminated on:  15:34:32  21Jul2016            

=------------------------------------------------------------------------------=
   JOB DONE.
=------------------------------------------------------------------------------=
