
     Program PWSCF v.5.4.0 (svn rev. 12782M) starts on 18Aug2016 at 16:10:48 

     This program is part of the open-source Quantum ESPRESSO suite
     for quantum simulation of materials; please cite
         "P. Giannozzi et al., J. Phys.:Condens. Matter 21 395502 (2009);
          URL http://www.quantum-espresso.org", 
     in publications or presentations arising from this work. More details at
     http://www.quantum-espresso.org/quote
 
           HOST :    x86_64-pc-linux-gnu
           ARCH :    x86_64
             CC :    icc
            CPP :    cpp
            F90 :    ifort
            F77 :    ifort
         DFLAGS :    -D__INTEL -D__FFTW -D__MPI -D__PARA -D__HDF5
      BLAS LIBS :    -lmkl_intel_lp64  -lmkl_sequential -lmkl_core
    LAPACK LIBS :    
       FFT LIBS :    
      MASS LIBS :    

     Parallel version (MPI), running on     2 processors
     R & G space division:  proc/nbgrp/npool/nimage =       2
     Waiting for input...
     Reading input from standard input
     Message from routine read_cards :
     DEPRECATED: no units specified in ATOMIC_POSITIONS card
     Message from routine read_cards :
     ATOMIC_POSITIONS: units set to alat

     Current dimensions of program PWSCF are:
     Max number of different atomic species (ntypx) = 10
     Max number of k-points (npk) =  40000
     Max angular momentum in pseudopotentials (lmaxx) =  3
               file O.pbe-rrkjus.UPF: wavefunction(s)  2S renormalized

     Subspace diagonalization in iterative solution of the eigenvalue problem:
     a serial algorithm will be used

 
     Parallelization info
     --------------------
     sticks:   dense  smooth     PW     G-vecs:    dense   smooth      PW
     Min        1682     842    210                73494    26016    3308
     Max        1683     843    211                73495    26019    3311
     Sum        3365    1685    421               146989    52035    6619
 


     bravais-lattice index     =            1
     lattice parameter (alat)  =      14.0000  a.u.
     unit-cell volume          =    2744.0000 (a.u.)^3
     number of atoms/cell      =            1
     number of atomic types    =            1
     number of electrons       =         6.00
     number of Kohn-Sham states=            6
     kinetic-energy cutoff     =      27.0000  Ry
     charge density cutoff     =     216.0000  Ry
     convergence threshold     =      1.0E-08
     mixing beta               =       0.2500
     number of iterations used =            8  plain     mixing
     Exchange-correlation      =  SLA  PW   PBE  PBE ( 1  4  3  4 0 0)

     celldm(1)=  14.000000  celldm(2)=   0.000000  celldm(3)=   0.000000
     celldm(4)=   0.000000  celldm(5)=   0.000000  celldm(6)=   0.000000

     crystal axes: (cart. coord. in units of alat)
               a(1) = (   1.000000   0.000000   0.000000 )  
               a(2) = (   0.000000   1.000000   0.000000 )  
               a(3) = (   0.000000   0.000000   1.000000 )  

     reciprocal axes: (cart. coord. in units 2 pi/alat)
               b(1) = (  1.000000  0.000000  0.000000 )  
               b(2) = (  0.000000  1.000000  0.000000 )  
               b(3) = (  0.000000  0.000000  1.000000 )  


     PseudoPot. # 1 for O  read from file:
     /home/nvarini/espresso_hdf5/espresso/pseudo/O.pbe-rrkjus.UPF
     MD5 check sum: 390ba29e75625707450f3bd3f0eb6be9
     Pseudo is Ultrasoft, Zval =  6.0
     Generated by new atomic code, or converted to UPF format
     Using radial grid of 1269 points,  4 beta functions with: 
                l(1) =   0
                l(2) =   0
                l(3) =   1
                l(4) =   1
     Q(r) pseudized with 0 coefficients 


     atomic species   valence    mass     pseudopotential
        O              6.00    15.99994     O ( 1.00)

     Starting magnetic structure 
     atomic species   magnetization
        O            0.500

     No symmetry found



   Cartesian axes

     site n.     atom                  positions (alat units)
         1           O   tau(   1) = (   0.0000000   0.0000000   0.0000000  )

     number of k points=     1
                       cart. coord. in units 2pi/alat
        k(    1) = (   0.0000000   0.0000000   0.0000000), wk =   1.0000000

     Dense  grid:   146989 G-vectors     FFT dimensions: (  72,  72,  72)

     Smooth grid:    52035 G-vectors     FFT dimensions: (  48,  48,  48)

     Occupations read from input 

      Spin-up

        1.0000   1.0000   1.0000   1.0000   0.0000   0.0000

      Spin-down

        1.0000   0.3333   0.3333   0.3333   0.0000   0.0000

     Estimated max dynamical RAM per process >      75.13Mb

     Estimated total allocated dynamical RAM >     150.25Mb
     Generating pointlists ...
     new r_m :   0.4125 (alat units)  5.7750 (a.u.) for type    1

     Initial potential from superposition of free atoms

     starting charge    6.00000, renormalised to    6.00000

     negative rho (up, down):  2.318E-05 7.728E-06
     Starting wfc are    4 randomized atomic wfcs +    2 random wfc

     total cpu time spent up to now is        0.8 secs

     per-process dynamical memory:    53.0 Mb

     Self-consistent Calculation

     iteration #  1     ecut=    27.00 Ry     beta=0.25
     Davidson diagonalization with overlap
     ethr =  1.00E-02,  avg # of iterations =  5.5

     Threshold (ethr) on eigenvalues was too large:
     Diagonalizing with lowered threshold

     Davidson diagonalization with overlap
     ethr =  2.23E-04,  avg # of iterations =  2.0

     negative rho (up, down):  3.246E-05 1.500E-05

     total cpu time spent up to now is        1.6 secs

     total energy              =     -31.48807525 Ry
     Harris-Foulkes estimate   =     -31.47571218 Ry
     estimated scf accuracy    <       0.01337893 Ry

     total magnetization       =     2.00 Bohr mag/cell
     absolute magnetization    =     2.00 Bohr mag/cell

     iteration #  2     ecut=    27.00 Ry     beta=0.25
     Davidson diagonalization with overlap
     ethr =  2.23E-04,  avg # of iterations =  1.0

     negative rho (up, down):  9.835E-04 1.101E-03

     total cpu time spent up to now is        2.1 secs

     total energy              =     -31.50377108 Ry
     Harris-Foulkes estimate   =     -31.48813746 Ry
     estimated scf accuracy    <       0.00756525 Ry

     total magnetization       =     2.00 Bohr mag/cell
     absolute magnetization    =     2.00 Bohr mag/cell

     iteration #  3     ecut=    27.00 Ry     beta=0.25
     Davidson diagonalization with overlap
     ethr =  1.26E-04,  avg # of iterations =  1.0

     negative rho (up, down):  6.188E-04 9.298E-04

     total cpu time spent up to now is        2.7 secs

     total energy              =     -31.50423157 Ry
     Harris-Foulkes estimate   =     -31.50425700 Ry
     estimated scf accuracy    <       0.00024288 Ry

     total magnetization       =     2.00 Bohr mag/cell
     absolute magnetization    =     2.00 Bohr mag/cell

     iteration #  4     ecut=    27.00 Ry     beta=0.25
     Davidson diagonalization with overlap
     ethr =  4.05E-06,  avg # of iterations =  8.5

     negative rho (up, down):  4.131E-04 5.729E-04

     total cpu time spent up to now is        3.2 secs

     total energy              =     -31.50433608 Ry
     Harris-Foulkes estimate   =     -31.50430303 Ry
     estimated scf accuracy    <       0.00001040 Ry

     total magnetization       =     2.00 Bohr mag/cell
     absolute magnetization    =     2.00 Bohr mag/cell

     iteration #  5     ecut=    27.00 Ry     beta=0.25
     Davidson diagonalization with overlap
     ethr =  1.73E-07,  avg # of iterations =  2.0

     negative rho (up, down):  1.855E-04 3.241E-04

     total cpu time spent up to now is        3.8 secs

     total energy              =     -31.50434176 Ry
     Harris-Foulkes estimate   =     -31.50433783 Ry
     estimated scf accuracy    <       0.00000620 Ry

     total magnetization       =     2.00 Bohr mag/cell
     absolute magnetization    =     2.00 Bohr mag/cell

     iteration #  6     ecut=    27.00 Ry     beta=0.25
     Davidson diagonalization with overlap
     ethr =  1.03E-07,  avg # of iterations =  2.0

     negative rho (up, down):  1.237E-04 2.216E-04

     total cpu time spent up to now is        4.3 secs

     total energy              =     -31.50434268 Ry
     Harris-Foulkes estimate   =     -31.50434424 Ry
     estimated scf accuracy    <       0.00000060 Ry

     total magnetization       =     2.00 Bohr mag/cell
     absolute magnetization    =     2.00 Bohr mag/cell

     iteration #  7     ecut=    27.00 Ry     beta=0.25
     Davidson diagonalization with overlap
     ethr =  1.00E-08,  avg # of iterations =  1.5

     negative rho (up, down):  1.022E-04 1.585E-04

     total cpu time spent up to now is        4.9 secs

     total energy              =     -31.50434198 Ry
     Harris-Foulkes estimate   =     -31.50434288 Ry
     estimated scf accuracy    <       0.00000004 Ry

     total magnetization       =     2.00 Bohr mag/cell
     absolute magnetization    =     2.00 Bohr mag/cell

     iteration #  8     ecut=    27.00 Ry     beta=0.25
     Davidson diagonalization with overlap
     ethr =  7.25E-10,  avg # of iterations =  1.5

     negative rho (up, down):  9.062E-05 1.151E-04

     total cpu time spent up to now is        5.4 secs

     total energy              =     -31.50434186 Ry
     Harris-Foulkes estimate   =     -31.50434198 Ry
     estimated scf accuracy    <       0.00000002 Ry

     total magnetization       =     2.00 Bohr mag/cell
     absolute magnetization    =     2.00 Bohr mag/cell

     iteration #  9     ecut=    27.00 Ry     beta=0.25
     Davidson diagonalization with overlap
     ethr =  3.72E-10,  avg # of iterations =  2.0

     negative rho (up, down):  8.019E-05 4.386E-05
 
     Magnetic moment per site:
     atom:    1    charge:    5.9995    magn:    2.0001    constr:    0.0000

     total cpu time spent up to now is        6.0 secs

     End of self-consistent calculation

 ------ SPIN UP ------------


          k = 0.0000 0.0000 0.0000 (  6619 PWs)   bands (ev):

   -25.0596 -10.0345 -10.0345 -10.0345  -0.5792   2.1167

 ------ SPIN DOWN ----------


          k = 0.0000 0.0000 0.0000 (  6619 PWs)   bands (ev):

   -21.6727  -6.8527  -6.8527  -6.8527  -0.4733   2.2833

     highest occupied, lowest unoccupied level (ev):    -6.8527   -0.5792

!    total energy              =     -31.50434356 Ry
     Harris-Foulkes estimate   =     -31.50434187 Ry
     estimated scf accuracy    <          3.7E-11 Ry

     The total energy is the sum of the following terms:

     one-electron contribution =     -37.61407016 Ry
     hartree contribution      =      20.01357468 Ry
     xc contribution           =      -6.60794024 Ry
     ewald contribution        =      -7.29590784 Ry

     total magnetization       =     2.00 Bohr mag/cell
     absolute magnetization    =     2.00 Bohr mag/cell

     convergence has been achieved in   9 iterations

     Writing output data file pwscf.save
 
     init_run     :      0.73s CPU      0.79s WALL (       1 calls)
     electrons    :      4.92s CPU      5.15s WALL (       1 calls)

     Called by init_run:
     wfcinit      :      0.03s CPU      0.03s WALL (       1 calls)
     potinit      :      0.30s CPU      0.33s WALL (       1 calls)

     Called by electrons:
     c_bands      :      0.66s CPU      0.67s WALL (      10 calls)
     sum_band     :      1.33s CPU      1.44s WALL (      10 calls)
     v_of_rho     :      2.40s CPU      2.44s WALL (      10 calls)
     newd         :      0.40s CPU      0.49s WALL (      10 calls)
     mix_rho      :      0.25s CPU      0.25s WALL (      10 calls)

     Called by c_bands:
     init_us_2    :      0.03s CPU      0.03s WALL (      42 calls)
     cegterg      :      0.61s CPU      0.62s WALL (      20 calls)

     Called by sum_band:
     sum_band:bec :      0.00s CPU      0.00s WALL (      20 calls)
     addusdens    :      0.88s CPU      0.99s WALL (      10 calls)

     Called by *egterg:
     h_psi        :      0.53s CPU      0.54s WALL (      76 calls)
     s_psi        :      0.01s CPU      0.01s WALL (      76 calls)
     g_psi        :      0.01s CPU      0.01s WALL (      54 calls)
     cdiaghg      :      0.01s CPU      0.01s WALL (      72 calls)

     Called by h_psi:
     h_psi:pot    :      0.53s CPU      0.54s WALL (      76 calls)
     h_psi:calbec :      0.02s CPU      0.01s WALL (      76 calls)
     add_vuspsi   :      0.01s CPU      0.01s WALL (      76 calls)

     General routines
     calbec       :      0.02s CPU      0.02s WALL (      96 calls)
     fft          :      1.25s CPU      1.28s WALL (     307 calls)
     ffts         :      0.04s CPU      0.04s WALL (      40 calls)
     fftw         :      0.47s CPU      0.48s WALL (     764 calls)
     interpolate  :      0.24s CPU      0.24s WALL (      40 calls)
 
     Parallel routines
     fft_scatter  :      0.54s CPU      0.56s WALL (    1111 calls)
 
     PWSCF        :     5.72s CPU         6.03s WALL

 
   This run was terminated on:  16:10:54  18Aug2016            

=------------------------------------------------------------------------------=
   JOB DONE.
=------------------------------------------------------------------------------=
