
     Program PWSCF v.5.4.0 (svn rev. 12828M) starts on 23Aug2016 at 14:31:15 

     This program is part of the open-source Quantum ESPRESSO suite
     for quantum simulation of materials; please cite
         "P. Giannozzi et al., J. Phys.:Condens. Matter 21 395502 (2009);
          URL http://www.quantum-espresso.org", 
     in publications or presentations arising from this work. More details at
     http://www.quantum-espresso.org/quote
 
           HOST :    x86_64-pc-linux-gnu
           ARCH :    x86_64
             CC :    icc
            CPP :    cpp
            F90 :    ifort
            F77 :    ifort
         DFLAGS :    -D__INTEL -D__FFTW -D__MPI -D__PARA -D__HDF5
      BLAS LIBS :    -lmkl_intel_lp64  -lmkl_sequential -lmkl_core
    LAPACK LIBS :    
       FFT LIBS :    
      MASS LIBS :    

     Parallel version (MPI), running on     2 processors
     R & G space division:  proc/nbgrp/npool/nimage =       2
     Waiting for input...
     Reading input from standard input
     Message from routine read_cards :
     DEPRECATED: no units specified in ATOMIC_POSITIONS card
     Message from routine read_cards :
     ATOMIC_POSITIONS: units set to alat

     Current dimensions of program PWSCF are:
     Max number of different atomic species (ntypx) = 10
     Max number of k-points (npk) =  40000
     Max angular momentum in pseudopotentials (lmaxx) =  3
               file O.pbe-rrkjus.UPF: wavefunction(s)  2S renormalized

     gamma-point specific algorithms are used

     Subspace diagonalization in iterative solution of the eigenvalue problem:
     a serial algorithm will be used

 
     Parallelization info
     --------------------
     sticks:   dense  smooth     PW     G-vecs:    dense   smooth      PW
     Min        1681     841    210                73493    26015    3306
     Max        1684     844    211                73496    26020    3313
     Sum        3365    1685    421               146989    52035    6619
 


     bravais-lattice index     =            1
     lattice parameter (alat)  =      14.0000  a.u.
     unit-cell volume          =    2744.0000 (a.u.)^3
     number of atoms/cell      =            1
     number of atomic types    =            1
     number of electrons       =         6.00
     number of Kohn-Sham states=            6
     kinetic-energy cutoff     =      27.0000  Ry
     charge density cutoff     =     216.0000  Ry
     convergence threshold     =      1.0E-08
     mixing beta               =       0.2500
     number of iterations used =            8  plain     mixing
     Exchange-correlation      =  SLA  PW   PBE  PBE ( 1  4  3  4 0 0)

     celldm(1)=  14.000000  celldm(2)=   0.000000  celldm(3)=   0.000000
     celldm(4)=   0.000000  celldm(5)=   0.000000  celldm(6)=   0.000000

     crystal axes: (cart. coord. in units of alat)
               a(1) = (   1.000000   0.000000   0.000000 )  
               a(2) = (   0.000000   1.000000   0.000000 )  
               a(3) = (   0.000000   0.000000   1.000000 )  

     reciprocal axes: (cart. coord. in units 2 pi/alat)
               b(1) = (  1.000000  0.000000  0.000000 )  
               b(2) = (  0.000000  1.000000  0.000000 )  
               b(3) = (  0.000000  0.000000  1.000000 )  


     PseudoPot. # 1 for O  read from file:
     /home/nvarini/espresso_hdf5/espresso/pseudo/O.pbe-rrkjus.UPF
     MD5 check sum: 390ba29e75625707450f3bd3f0eb6be9
     Pseudo is Ultrasoft, Zval =  6.0
     Generated by new atomic code, or converted to UPF format
     Using radial grid of 1269 points,  4 beta functions with: 
                l(1) =   0
                l(2) =   0
                l(3) =   1
                l(4) =   1
     Q(r) pseudized with 0 coefficients 


     atomic species   valence    mass     pseudopotential
        O              6.00    15.99994     O ( 1.00)

     Starting magnetic structure 
     atomic species   magnetization
        O            0.500

     No symmetry found



   Cartesian axes

     site n.     atom                  positions (alat units)
         1           O   tau(   1) = (   0.0000000   0.0000000   0.0000000  )

     number of k points=     1
                       cart. coord. in units 2pi/alat
        k(    1) = (   0.0000000   0.0000000   0.0000000), wk =   1.0000000

     Dense  grid:    73495 G-vectors     FFT dimensions: (  72,  72,  72)

     Smooth grid:    26018 G-vectors     FFT dimensions: (  48,  48,  48)

     Occupations read from input 

      Spin-up

        1.0000   1.0000   1.0000   1.0000   0.0000   0.0000

      Spin-down

        1.0000   0.3333   0.3333   0.3333   0.0000   0.0000

     Estimated max dynamical RAM per process >      47.53Mb

     Estimated total allocated dynamical RAM >      95.06Mb
     Generating pointlists ...
     new r_m :   0.4125 (alat units)  5.7750 (a.u.) for type    1

     Initial potential from superposition of free atoms

     starting charge    6.00000, renormalised to    6.00000

     negative rho (up, down):  2.318E-05 7.728E-06
     Starting wfc are    4 randomized atomic wfcs +    2 random wfc

     total cpu time spent up to now is        0.8 secs

     per-process dynamical memory:    43.3 Mb

     Self-consistent Calculation

     iteration #  1     ecut=    27.00 Ry     beta=0.25
     Davidson diagonalization with overlap
     ethr =  1.00E-02,  avg # of iterations =  7.0

     Threshold (ethr) on eigenvalues was too large:
     Diagonalizing with lowered threshold

     Davidson diagonalization with overlap
     ethr =  2.22E-04,  avg # of iterations =  1.5

     negative rho (up, down):  3.253E-05 1.429E-05

     total cpu time spent up to now is        1.3 secs

     total energy              =     -31.48807260 Ry
     Harris-Foulkes estimate   =     -31.47571798 Ry
     estimated scf accuracy    <       0.01333071 Ry

     total magnetization       =     2.00 Bohr mag/cell
     absolute magnetization    =     2.00 Bohr mag/cell

     iteration #  2     ecut=    27.00 Ry     beta=0.25
     Davidson diagonalization with overlap
     ethr =  2.22E-04,  avg # of iterations =  1.0

     negative rho (up, down):  9.958E-04 1.108E-03

     total cpu time spent up to now is        1.7 secs

     total energy              =     -31.50377553 Ry
     Harris-Foulkes estimate   =     -31.48813288 Ry
     estimated scf accuracy    <       0.00756410 Ry

     total magnetization       =     2.00 Bohr mag/cell
     absolute magnetization    =     2.00 Bohr mag/cell

     iteration #  3     ecut=    27.00 Ry     beta=0.25
     Davidson diagonalization with overlap
     ethr =  1.26E-04,  avg # of iterations =  1.0

     negative rho (up, down):  6.057E-04 9.190E-04

     total cpu time spent up to now is        2.1 secs

     total energy              =     -31.50423757 Ry
     Harris-Foulkes estimate   =     -31.50427325 Ry
     estimated scf accuracy    <       0.00023065 Ry

     total magnetization       =     2.00 Bohr mag/cell
     absolute magnetization    =     2.00 Bohr mag/cell

     iteration #  4     ecut=    27.00 Ry     beta=0.25
     Davidson diagonalization with overlap
     ethr =  3.84E-06,  avg # of iterations =  6.5

     negative rho (up, down):  4.162E-04 5.726E-04

     total cpu time spent up to now is        2.6 secs

     total energy              =     -31.50433607 Ry
     Harris-Foulkes estimate   =     -31.50430749 Ry
     estimated scf accuracy    <       0.00001008 Ry

     total magnetization       =     2.00 Bohr mag/cell
     absolute magnetization    =     2.00 Bohr mag/cell

     iteration #  5     ecut=    27.00 Ry     beta=0.25
     Davidson diagonalization with overlap
     ethr =  1.68E-07,  avg # of iterations =  4.5

     negative rho (up, down):  1.714E-04 3.113E-04

     total cpu time spent up to now is        3.0 secs

     total energy              =     -31.50434140 Ry
     Harris-Foulkes estimate   =     -31.50433809 Ry
     estimated scf accuracy    <       0.00000605 Ry

     total magnetization       =     2.00 Bohr mag/cell
     absolute magnetization    =     2.00 Bohr mag/cell

     iteration #  6     ecut=    27.00 Ry     beta=0.25
     Davidson diagonalization with overlap
     ethr =  1.01E-07,  avg # of iterations =  2.0

     negative rho (up, down):  1.243E-04 2.211E-04

     total cpu time spent up to now is        3.4 secs

     total energy              =     -31.50434269 Ry
     Harris-Foulkes estimate   =     -31.50434445 Ry
     estimated scf accuracy    <       0.00000057 Ry

     total magnetization       =     2.00 Bohr mag/cell
     absolute magnetization    =     2.00 Bohr mag/cell

     iteration #  7     ecut=    27.00 Ry     beta=0.25
     Davidson diagonalization with overlap
     ethr =  9.49E-09,  avg # of iterations =  2.0

     negative rho (up, down):  1.028E-04 1.586E-04

     total cpu time spent up to now is        3.8 secs

     total energy              =     -31.50434199 Ry
     Harris-Foulkes estimate   =     -31.50434286 Ry
     estimated scf accuracy    <       0.00000004 Ry

     total magnetization       =     2.00 Bohr mag/cell
     absolute magnetization    =     2.00 Bohr mag/cell

     iteration #  8     ecut=    27.00 Ry     beta=0.25
     Davidson diagonalization with overlap
     ethr =  7.02E-10,  avg # of iterations =  1.5

     negative rho (up, down):  9.079E-05 1.150E-04

     total cpu time spent up to now is        4.3 secs

     total energy              =     -31.50434187 Ry
     Harris-Foulkes estimate   =     -31.50434199 Ry
     estimated scf accuracy    <       0.00000003 Ry

     total magnetization       =     2.00 Bohr mag/cell
     absolute magnetization    =     2.00 Bohr mag/cell

     iteration #  9     ecut=    27.00 Ry     beta=0.25
     Davidson diagonalization with overlap
     ethr =  4.62E-10,  avg # of iterations =  2.0

     negative rho (up, down):  8.019E-05 4.387E-05
 
     Magnetic moment per site:
     atom:    1    charge:    5.9995    magn:    2.0001    constr:    0.0000

     total cpu time spent up to now is        4.7 secs

     End of self-consistent calculation

 ------ SPIN UP ------------


          k = 0.0000 0.0000 0.0000 (  3310 PWs)   bands (ev):

   -25.0597 -10.0346 -10.0346 -10.0346  -0.5793   2.1166

 ------ SPIN DOWN ----------


          k = 0.0000 0.0000 0.0000 (  3310 PWs)   bands (ev):

   -21.6728  -6.8528  -6.8528  -6.8528  -0.4732   2.2717

     highest occupied, lowest unoccupied level (ev):    -6.8528   -0.5793

!    total energy              =     -31.50434356 Ry
     Harris-Foulkes estimate   =     -31.50434187 Ry
     estimated scf accuracy    <          2.5E-10 Ry

     The total energy is the sum of the following terms:

     one-electron contribution =     -37.61410894 Ry
     hartree contribution      =      20.01362576 Ry
     xc contribution           =      -6.60795254 Ry
     ewald contribution        =      -7.29590784 Ry

     total magnetization       =     2.00 Bohr mag/cell
     absolute magnetization    =     2.00 Bohr mag/cell

     convergence has been achieved in   9 iterations

     Writing output data file pwscf.save
 
     init_run     :      0.67s CPU      0.71s WALL (       1 calls)
     electrons    :      3.90s CPU      3.93s WALL (       1 calls)

     Called by init_run:
     wfcinit      :      0.01s CPU      0.01s WALL (       1 calls)
     potinit      :      0.28s CPU      0.31s WALL (       1 calls)

     Called by electrons:
     c_bands      :      0.34s CPU      0.34s WALL (      10 calls)
     sum_band     :      0.86s CPU      0.87s WALL (      10 calls)
     v_of_rho     :      2.35s CPU      2.39s WALL (      10 calls)
     newd         :      0.25s CPU      0.26s WALL (      10 calls)
     mix_rho      :      0.19s CPU      0.20s WALL (      10 calls)

     Called by c_bands:
     init_us_2    :      0.02s CPU      0.02s WALL (      42 calls)
     regterg      :      0.31s CPU      0.31s WALL (      20 calls)

     Called by sum_band:
     sum_band:bec :      0.00s CPU      0.00s WALL (      20 calls)
     addusdens    :      0.50s CPU      0.50s WALL (      10 calls)

     Called by *egterg:
     h_psi        :      0.28s CPU      0.28s WALL (      80 calls)
     s_psi        :      0.00s CPU      0.00s WALL (      80 calls)
     g_psi        :      0.00s CPU      0.00s WALL (      58 calls)
     rdiaghg      :      0.01s CPU      0.01s WALL (      76 calls)

     Called by h_psi:
     h_psi:pot    :      0.28s CPU      0.28s WALL (      80 calls)
     h_psi:calbec :      0.01s CPU      0.01s WALL (      80 calls)
     add_vuspsi   :      0.00s CPU      0.00s WALL (      80 calls)

     General routines
     calbec       :      0.01s CPU      0.01s WALL (     100 calls)
     fft          :      1.23s CPU      1.24s WALL (     307 calls)
     ffts         :      0.04s CPU      0.04s WALL (      40 calls)
     fftw         :      0.25s CPU      0.26s WALL (     408 calls)
     interpolate  :      0.23s CPU      0.23s WALL (      40 calls)
 
     Parallel routines
     fft_scatter  :      0.47s CPU      0.48s WALL (     755 calls)
 
     PWSCF        :     4.63s CPU         4.74s WALL

 
   This run was terminated on:  14:31:20  23Aug2016            

=------------------------------------------------------------------------------=
   JOB DONE.
=------------------------------------------------------------------------------=
