
     Program PHONON v.5.4.0 (svn rev. 12590M) starts on 21Jul2016 at 16: 6:17 

     This program is part of the open-source Quantum ESPRESSO suite
     for quantum simulation of materials; please cite
         "P. Giannozzi et al., J. Phys.:Condens. Matter 21 395502 (2009);
          URL http://www.quantum-espresso.org", 
     in publications or presentations arising from this work. More details at
     http://www.quantum-espresso.org/quote
 
           HOST :    x86_64-pc-linux-gnu
           ARCH :    x86_64
             CC :    icc
            CPP :    cpp
            F90 :    gfortran
            F77 :    gfortran
         DFLAGS :    -D__GFORTRAN -D__STD_F95 -D__DFTI -D__MPI -D__PARA -D__HDF5
      BLAS LIBS :    -lmkl_gf_lp64  -lmkl_sequential -lmkl_core
    LAPACK LIBS :    
       FFT LIBS :    
      MASS LIBS :    

     Parallel version (MPI), running on     2 processors
     R & G space division:  proc/nbgrp/npool/nimage =       2

     Reading data from directory:
     /home/nvarini/espresso_hdf5/espresso/tempdir/gold.save

   Info: using nr1, nr2, nr3 values from input

   Info: using nr1, nr2, nr3 values from input

     IMPORTANT: XC functional enforced from input :
     Exchange-correlation      =  SLA  PZ   NOGX NOGC ( 1  1  0  0 0 0)
     Any further DFT definition will be discarded
     Please, verify this is what you really want

               file Au.rel-pz-kjpaw.UPF: wavefunction(s)  6S 6P 6P 5D renormalized
 
     Parallelization info
     --------------------
     sticks:   dense  smooth     PW     G-vecs:    dense   smooth      PW
     Min         297     141     45                 4919     1570     304
     Max         298     142     46                 4922     1573     305
     Sum         595     283     91                 9841     3143     609
 

     Calculation of q =    0.0000000   0.0000000   0.0000000

                                                                                

     bravais-lattice index     =            2
     lattice parameter (alat)  =       7.6660  a.u.
     unit-cell volume          =     112.6280 (a.u.)^3
     number of atoms/cell      =            1
     number of atomic types    =            1
     kinetic-energy cut-off    =      35.0000  Ry
     charge density cut-off    =     300.0000  Ry
     convergence threshold     =      1.0E-14
     beta                      =       0.7000
     number of iterations used =            4
     Exchange-correlation      =  SLA  PZ   NOGX NOGC ( 1  1  0  0 0 0)
     Non magnetic calculation with spin-orbit

     celldm(1)=    7.66600  celldm(2)=    0.00000  celldm(3)=    0.00000
     celldm(4)=    0.00000  celldm(5)=    0.00000  celldm(6)=    0.00000

     crystal axes: (cart. coord. in units of alat)
               a(1) = ( -0.5000  0.0000  0.5000 )  
               a(2) = (  0.0000  0.5000  0.5000 )  
               a(3) = ( -0.5000  0.5000  0.0000 )  

     reciprocal axes: (cart. coord. in units 2 pi/alat)
               b(1) = ( -1.0000 -1.0000  1.0000 )  
               b(2) = (  1.0000  1.0000  1.0000 )  
               b(3) = ( -1.0000  1.0000 -1.0000 )  


     Atoms inside the unit cell: 

     Cartesian axes

     site n.  atom      mass           positions (alat units)
        1     Au 196.9666   tau(    1) = (    0.00000    0.00000    0.00000  )

     Computing dynamical matrix for 
                    q = (   0.0000000   0.0000000   0.0000000 )
 
     49 Sym.Ops. (with q -> -q+G )


     G cutoff =  446.5799  (   4922 G-vectors)     FFT grid: ( 30, 30, 30)
     G cutoff =  208.4039  (   1570 G-vectors)  smooth grid: ( 24, 24, 24)

     number of k points=    10  Methfessel-Paxton smearing, width (Ry)=  0.0400
                       cart. coord. in units 2pi/alat
        k(    1) = (  -0.1250000   0.1250000   0.1250000), wk =   0.0312500
        k(    2) = (  -0.3750000   0.3750000  -0.1250000), wk =   0.0937500
        k(    3) = (   0.3750000  -0.3750000   0.6250000), wk =   0.0937500
        k(    4) = (   0.1250000  -0.1250000   0.3750000), wk =   0.0937500
        k(    5) = (  -0.1250000   0.6250000   0.1250000), wk =   0.0937500
        k(    6) = (   0.6250000  -0.1250000   0.8750000), wk =   0.1875000
        k(    7) = (   0.3750000   0.1250000   0.6250000), wk =   0.1875000
        k(    8) = (  -0.1250000  -0.8750000   0.1250000), wk =   0.0937500
        k(    9) = (  -0.3750000   0.3750000   0.3750000), wk =   0.0312500
        k(   10) = (   0.3750000  -0.3750000   1.1250000), wk =   0.0937500

     PseudoPot. # 1 for Au read from file:
     /home/nvarini/espresso_hdf5/espresso/pseudo/Au.rel-pz-kjpaw.UPF
     MD5 check sum: b956ecb87c50568e3ccd6514a7847638
     Pseudo is Projector augmented-wave + core cor, Zval = 11.0
     Generated using "atomic" code by A. Dal Corso  (Quantum ESPRESSO distribution)
     Shape of augmentation charge: PSQ
     Using radial grid of 1279 points, 10 beta functions with: 
                l(1) =   0
                l(2) =   0
                l(3) =   1
                l(4) =   1
                l(5) =   1
                l(6) =   1
                l(7) =   2
                l(8) =   2
                l(9) =   2
               l(10) =   2
     Q(r) pseudized with 0 coefficients 


     Mode symmetry, O_h (m-3m)  point group:


     Atomic displacements:
     There are   1 irreducible representations

     Representation     1      3 modes -T_1u G_15  G_4-  To be done



     Alpha used in Ewald sum =   2.8000
     PHONON       :     4.59s CPU         4.64s WALL



     Representation #  1 modes #   1  2  3

     Self-consistent Calculation
 
     Pert. #  1: Fermi energy shift (Ry) =     0.0000E+00     1.2539E-37
     Pert. #  2: Fermi energy shift (Ry) =     6.0315E-26    -1.2539E-37
     Pert. #  3: Fermi energy shift (Ry) =    -6.8932E-26     0.0000E+00

      iter #   1 total cpu time :     7.2 secs   av.it.:   5.7
      thresh= 1.000E-02 alpha_mix =  0.700 |ddv_scf|^2 =  9.515E-07
 
     Pert. #  1: Fermi energy shift (Ry) =    -6.8932E-26     0.0000E+00
     Pert. #  2: Fermi energy shift (Ry) =    -6.4623E-26    -9.7958E-40
     Pert. #  3: Fermi energy shift (Ry) =     1.7233E-25     4.8979E-40

      iter #   2 total cpu time :    10.1 secs   av.it.:  10.2
      thresh= 9.755E-05 alpha_mix =  0.700 |ddv_scf|^2 =  4.692E-09
 
     Pert. #  1: Fermi energy shift (Ry) =     0.0000E+00    -1.2245E-40
     Pert. #  2: Fermi energy shift (Ry) =     1.2925E-26    -6.1224E-41
     Pert. #  3: Fermi energy shift (Ry) =    -3.4466E-26     0.0000E+00

      iter #   3 total cpu time :    13.4 secs   av.it.:   9.8
      thresh= 6.850E-06 alpha_mix =  0.700 |ddv_scf|^2 =  1.336E-10
 
     Pert. #  1: Fermi energy shift (Ry) =    -6.8932E-26     0.0000E+00
     Pert. #  2: Fermi energy shift (Ry) =     1.4648E-25     4.5918E-41
     Pert. #  3: Fermi energy shift (Ry) =     1.3786E-25    -9.1835E-41

      iter #   4 total cpu time :    16.3 secs   av.it.:  10.4
      thresh= 1.156E-06 alpha_mix =  0.700 |ddv_scf|^2 =  6.680E-13
 
     Pert. #  1: Fermi energy shift (Ry) =    -6.8932E-26    -3.0612E-41
     Pert. #  2: Fermi energy shift (Ry) =    -3.8774E-26    -7.6530E-42
     Pert. #  3: Fermi energy shift (Ry) =     0.0000E+00     0.0000E+00

      iter #   5 total cpu time :    19.1 secs   av.it.:   9.0
      thresh= 8.173E-08 alpha_mix =  0.700 |ddv_scf|^2 =  3.835E-16

     End of self-consistent calculation

     Convergence has been achieved 
 
     Number of q in the star =    1
     List of q in the star:
          1   0.000000000   0.000000000   0.000000000

     Diagonalizing the dynamical matrix

     q = (    0.000000000   0.000000000   0.000000000 ) 

 **************************************************************************
     freq (    1) =      -0.176315 [THz] =      -5.881245 [cm-1]
     freq (    2) =      -0.176315 [THz] =      -5.881245 [cm-1]
     freq (    3) =      -0.176315 [THz] =      -5.881245 [cm-1]
 **************************************************************************

     Mode symmetry, O_h (m-3m)  point group:

     freq (  1 -  3) =         -5.9  [cm-1]   --> T_1u G_15  G_4- I  
 
     PHONON       :    18.39s CPU        19.18s WALL

     INITIALIZATION: 
     phq_setup    :      0.01s CPU      0.01s WALL (       1 calls)
     phq_init     :      2.41s CPU      2.41s WALL (       1 calls)
 
     phq_init     :      2.41s CPU      2.41s WALL (       1 calls)
     set_drhoc    :      0.48s CPU      0.48s WALL (       3 calls)
     init_vloc    :      0.00s CPU      0.00s WALL (       1 calls)
     init_us_1    :      0.54s CPU      0.55s WALL (       1 calls)
     newd         :      0.05s CPU      0.06s WALL (       1 calls)
     dvanqq       :      0.30s CPU      0.30s WALL (       1 calls)
     drho         :      1.42s CPU      1.41s WALL (       1 calls)
 
     DYNAMICAL MATRIX:
     dynmat0      :      0.46s CPU      0.46s WALL (       1 calls)
     phqscf       :     13.79s CPU     14.53s WALL (       1 calls)
     dynmatrix    :      0.01s CPU      0.01s WALL (       1 calls)
 
     phqscf       :     13.79s CPU     14.53s WALL (       1 calls)
     solve_linter :     13.73s CPU     14.47s WALL (       1 calls)
     drhodv       :      0.06s CPU      0.06s WALL (       1 calls)
 
     dynmat0      :      0.46s CPU      0.46s WALL (       1 calls)
     dynmat_us    :      0.14s CPU      0.14s WALL (       1 calls)
     d2ionq       :      0.00s CPU      0.00s WALL (       1 calls)
     dynmatcc     :      0.32s CPU      0.32s WALL (       1 calls)
 
     dynmat_us    :      0.14s CPU      0.14s WALL (       1 calls)
     addusdynmat  :      0.02s CPU      0.02s WALL (       1 calls)
 
     phqscf       :     13.79s CPU     14.53s WALL (       1 calls)
     solve_linter :     13.73s CPU     14.47s WALL (       1 calls)
 
     solve_linter :     13.73s CPU     14.47s WALL (       1 calls)
     dvqpsi_us    :      0.48s CPU      0.48s WALL (      30 calls)
     ortho        :      0.11s CPU      0.11s WALL (     150 calls)
     cgsolve      :      7.03s CPU      7.17s WALL (     150 calls)
     incdrhoscf   :      0.68s CPU      0.69s WALL (     150 calls)
     addusddens   :      0.40s CPU      0.40s WALL (       6 calls)
     vpsifft      :      0.46s CPU      0.47s WALL (     120 calls)
     dv_of_drho   :      0.01s CPU      0.01s WALL (      15 calls)
     mix_pot      :      0.02s CPU      0.02s WALL (       5 calls)
     ef_shift     :      0.01s CPU      0.01s WALL (       6 calls)
     localdos     :      0.09s CPU      0.09s WALL (       1 calls)
     psymdvscf    :      0.69s CPU      0.69s WALL (       5 calls)
     newdq        :      0.75s CPU      0.75s WALL (       5 calls)
     adddvscf     :      0.12s CPU      0.12s WALL (     120 calls)
     drhodvus     :      0.00s CPU      0.00s WALL (       1 calls)
 
     dvqpsi_us    :      0.48s CPU      0.48s WALL (      30 calls)
     dvqpsi_us_on :      0.28s CPU      0.29s WALL (      30 calls)
 
     cgsolve      :      7.03s CPU      7.17s WALL (     150 calls)
     ch_psi       :      6.91s CPU      7.05s WALL (    1729 calls)
 
     ch_psi       :      6.91s CPU      7.05s WALL (    1729 calls)
     last         :      0.66s CPU      0.68s WALL (    1729 calls)
 
     add_vuspsi   :      0.27s CPU      0.28s WALL (    1729 calls)
 
     incdrhoscf   :      0.68s CPU      0.69s WALL (     150 calls)
 
     drhodvus     :      0.00s CPU      0.00s WALL (       1 calls)
 
      General routines
     calbec       :      0.49s CPU      0.47s WALL (    4018 calls)
     fft          :      0.04s CPU      0.05s WALL (     185 calls)
     ffts         :      0.03s CPU      0.03s WALL (     306 calls)
     fftw         :      5.73s CPU      5.70s WALL (   81752 calls)
     davcio       :      0.04s CPU      0.59s WALL (     557 calls)
     write_rec    :      0.01s CPU      0.02s WALL (       6 calls)
 
 
     PHONON       :    18.39s CPU        19.18s WALL

 
   This run was terminated on:  16: 6:36  21Jul2016            

=------------------------------------------------------------------------------=
   JOB DONE.
=------------------------------------------------------------------------------=
