
     Program PWSCF v.5.4.0 (svn rev. 12590M) starts on 21Jul2016 at 16: 6:11 

     This program is part of the open-source Quantum ESPRESSO suite
     for quantum simulation of materials; please cite
         "P. Giannozzi et al., J. Phys.:Condens. Matter 21 395502 (2009);
          URL http://www.quantum-espresso.org", 
     in publications or presentations arising from this work. More details at
     http://www.quantum-espresso.org/quote
 
           HOST :    x86_64-pc-linux-gnu
           ARCH :    x86_64
             CC :    icc
            CPP :    cpp
            F90 :    gfortran
            F77 :    gfortran
         DFLAGS :    -D__GFORTRAN -D__STD_F95 -D__DFTI -D__MPI -D__PARA -D__HDF5
      BLAS LIBS :    -lmkl_gf_lp64  -lmkl_sequential -lmkl_core
    LAPACK LIBS :    
       FFT LIBS :    
      MASS LIBS :    

     Parallel version (MPI), running on     2 processors
     R & G space division:  proc/nbgrp/npool/nimage =       2
     Waiting for input...
     Reading input from standard input

     Current dimensions of program PWSCF are:
     Max number of different atomic species (ntypx) = 10
     Max number of k-points (npk) =  40000
     Max angular momentum in pseudopotentials (lmaxx) =  3
               file Au.rel-pz-kjpaw.UPF: wavefunction(s)  6S 6P 6P 5D renormalized

     Subspace diagonalization in iterative solution of the eigenvalue problem:
     a serial algorithm will be used

 
     Parallelization info
     --------------------
     sticks:   dense  smooth     PW     G-vecs:    dense   smooth      PW
     Min         297     141     45                 4919     1570     304
     Max         298     142     46                 4922     1573     305
     Sum         595     283     91                 9841     3143     609
 


     bravais-lattice index     =            2
     lattice parameter (alat)  =       7.6660  a.u.
     unit-cell volume          =     112.6280 (a.u.)^3
     number of atoms/cell      =            1
     number of atomic types    =            1
     number of electrons       =        11.00
     number of Kohn-Sham states=           20
     kinetic-energy cutoff     =      35.0000  Ry
     charge density cutoff     =     300.0000  Ry
     convergence threshold     =      1.0E-09
     mixing beta               =       0.7000
     number of iterations used =            8  plain     mixing
     Exchange-correlation      =  SLA  PZ   NOGX NOGC ( 1  1  0  0 0 0)
     Non magnetic calculation with spin-orbit


     celldm(1)=   7.666000  celldm(2)=   0.000000  celldm(3)=   0.000000
     celldm(4)=   0.000000  celldm(5)=   0.000000  celldm(6)=   0.000000

     crystal axes: (cart. coord. in units of alat)
               a(1) = (  -0.500000   0.000000   0.500000 )  
               a(2) = (   0.000000   0.500000   0.500000 )  
               a(3) = (  -0.500000   0.500000   0.000000 )  

     reciprocal axes: (cart. coord. in units 2 pi/alat)
               b(1) = ( -1.000000 -1.000000  1.000000 )  
               b(2) = (  1.000000  1.000000  1.000000 )  
               b(3) = ( -1.000000  1.000000 -1.000000 )  


     PseudoPot. # 1 for Au read from file:
     /home/nvarini/espresso_hdf5/espresso/pseudo/Au.rel-pz-kjpaw.UPF
     MD5 check sum: b956ecb87c50568e3ccd6514a7847638
     Pseudo is Projector augmented-wave + core cor, Zval = 11.0
     Generated using "atomic" code by A. Dal Corso  (Quantum ESPRESSO distribution)
     Shape of augmentation charge: PSQ
     Using radial grid of 1279 points, 10 beta functions with: 
                l(1) =   0
                l(2) =   0
                l(3) =   1
                l(4) =   1
                l(5) =   1
                l(6) =   1
                l(7) =   2
                l(8) =   2
                l(9) =   2
               l(10) =   2
     Q(r) pseudized with 0 coefficients 


     atomic species   valence    mass     pseudopotential
        Au            11.00   196.96655     Au( 1.00)

     48 Sym. Ops., with inversion, found



   Cartesian axes

     site n.     atom                  positions (alat units)
         1           Au  tau(   1) = (   0.0000000   0.0000000   0.0000000  )

     number of k points=    10  Methfessel-Paxton smearing, width (Ry)=  0.0400
                       cart. coord. in units 2pi/alat
        k(    1) = (  -0.1250000   0.1250000   0.1250000), wk =   0.0312500
        k(    2) = (  -0.3750000   0.3750000  -0.1250000), wk =   0.0937500
        k(    3) = (   0.3750000  -0.3750000   0.6250000), wk =   0.0937500
        k(    4) = (   0.1250000  -0.1250000   0.3750000), wk =   0.0937500
        k(    5) = (  -0.1250000   0.6250000   0.1250000), wk =   0.0937500
        k(    6) = (   0.6250000  -0.1250000   0.8750000), wk =   0.1875000
        k(    7) = (   0.3750000   0.1250000   0.6250000), wk =   0.1875000
        k(    8) = (  -0.1250000  -0.8750000   0.1250000), wk =   0.0937500
        k(    9) = (  -0.3750000   0.3750000   0.3750000), wk =   0.0312500
        k(   10) = (   0.3750000  -0.3750000   1.1250000), wk =   0.0937500

     Dense  grid:     9841 G-vectors     FFT dimensions: (  30,  30,  30)

     Smooth grid:     3143 G-vectors     FFT dimensions: (  24,  24,  24)

     Largest allocated arrays     est. size (Mb)     dimensions
        Kohn-Sham Wavefunctions         0.13 Mb     (     416,   20)
        NL pseudopotentials             0.11 Mb     (     208,   34)
        Each V/rho on FFT grid          0.21 Mb     (   13500)
        Each G-vector array             0.04 Mb     (    4922)
        G-vector shells                 0.00 Mb     (     151)
     Largest temporary arrays     est. size (Mb)     dimensions
        Auxiliary wavefunctions         0.51 Mb     (     416,   80)
        Each subspace H/S matrix        0.10 Mb     (      80,   80)
        Each <psi_i|beta_j> matrix      0.02 Mb     (      34,   2,   20)
        Arrays for rho mixing           1.65 Mb     (   13500,    8)

     Initial potential from superposition of free atoms

     starting charge   10.99992, renormalised to   11.00000
     Starting wfc are   18 randomized atomic wfcs +    2 random wfc
     Checking if some PAW data can be deallocated... 

     total cpu time spent up to now is        2.0 secs

     per-process dynamical memory:    20.7 Mb

     Self-consistent Calculation

     iteration #  1     ecut=    35.00 Ry     beta=0.70
     Davidson diagonalization with overlap
     ethr =  1.00E-02,  avg # of iterations =  4.5

     Threshold (ethr) on eigenvalues was too large:
     Diagonalizing with lowered threshold

     Davidson diagonalization with overlap
     ethr =  6.41E-04,  avg # of iterations =  1.0

     total cpu time spent up to now is        3.0 secs

     total energy              =    -760.27265019 Ry
     Harris-Foulkes estimate   =    -760.32296180 Ry
     estimated scf accuracy    <       0.07076363 Ry

     iteration #  2     ecut=    35.00 Ry     beta=0.70
     Davidson diagonalization with overlap
     ethr =  6.43E-04,  avg # of iterations =  2.0

     total cpu time spent up to now is        3.5 secs

     total energy              =    -760.29290786 Ry
     Harris-Foulkes estimate   =    -760.30878885 Ry
     estimated scf accuracy    <       0.02564864 Ry

     iteration #  3     ecut=    35.00 Ry     beta=0.70
     Davidson diagonalization with overlap
     ethr =  2.33E-04,  avg # of iterations =  2.0

     total cpu time spent up to now is        4.1 secs

     total energy              =    -760.29886609 Ry
     Harris-Foulkes estimate   =    -760.29890509 Ry
     estimated scf accuracy    <       0.00009703 Ry

     iteration #  4     ecut=    35.00 Ry     beta=0.70
     Davidson diagonalization with overlap
     ethr =  8.82E-07,  avg # of iterations =  2.7

     total cpu time spent up to now is        4.6 secs

     total energy              =    -760.29887871 Ry
     Harris-Foulkes estimate   =    -760.29887896 Ry
     estimated scf accuracy    <       0.00000070 Ry

     iteration #  5     ecut=    35.00 Ry     beta=0.70
     Davidson diagonalization with overlap
     ethr =  6.35E-09,  avg # of iterations =  1.9

     total cpu time spent up to now is        5.2 secs

     total energy              =    -760.29887880 Ry
     Harris-Foulkes estimate   =    -760.29887881 Ry
     estimated scf accuracy    <       0.00000003 Ry

     iteration #  6     ecut=    35.00 Ry     beta=0.70
     Davidson diagonalization with overlap
     ethr =  3.03E-10,  avg # of iterations =  1.0

     total cpu time spent up to now is        5.7 secs

     End of self-consistent calculation

          k =-0.1250 0.1250 0.1250 (   381 PWs)   bands (ev):

     6.4062   6.4062  10.6221  10.6221  10.7066  10.7066  11.9335  11.9335
    12.9483  12.9483  13.1560  13.1560  31.9172  31.9172  32.8940  32.8940
    35.5687  35.5687  36.5512  36.5512

          k =-0.3750 0.3750-0.1250 (   393 PWs)   bands (ev):

     8.5027   8.5027  10.5479  10.5479  10.9417  10.9417  12.1383  12.1383
    12.8982  12.8982  14.3202  14.3202  25.8426  25.8426  30.6839  30.6839
    33.8623  33.8623  37.4672  37.4672

          k = 0.3750-0.3750 0.6250 (   391 PWs)   bands (ev):

     8.7867   8.7867  10.5079  10.5079  11.7134  11.7134  12.5209  12.5209
    14.1841  14.1841  16.3366  16.3366  19.7670  19.7670  30.7327  30.7327
    32.1095  32.1095  33.2173  33.2173

          k = 0.1250-0.1250 0.3750 (   384 PWs)   bands (ev):

     7.6802   7.6802  10.3030  10.3030  10.9490  10.9490  12.2876  12.2876
    12.7620  12.7620  13.5564  13.5564  29.2220  29.2220  33.0612  33.0612
    33.3980  33.3980  35.8539  35.8539

          k =-0.1250 0.6250 0.1250 (   397 PWs)   bands (ev):

     9.0441   9.0441   9.7126   9.7126  11.4268  11.4268  12.8710  12.8710
    13.7614  13.7614  14.5224  14.5224  26.0550  26.0550  29.3971  29.3971
    30.6295  30.6295  33.8515  33.8515

          k = 0.6250-0.1250 0.8750 (   393 PWs)   bands (ev):

     9.5612   9.5612   9.9956   9.9956  11.3471  11.3471  13.0245  13.0245
    14.2398  14.2398  19.1959  19.1959  21.1711  21.1711  24.8293  24.8293
    27.4713  27.4713  36.3249  36.3249

          k = 0.3750 0.1250 0.6250 (   397 PWs)   bands (ev):

     9.4157   9.4157  10.3807  10.3807  10.8935  10.8935  12.4892  12.4892
    13.6562  13.6562  16.0181  16.0181  23.0412  23.0412  28.0460  28.0460
    30.9462  30.9462  35.4363  35.4364

          k =-0.1250-0.8750 0.1250 (   400 PWs)   bands (ev):

     8.9337   8.9337   9.2538   9.2538  12.9211  12.9211  13.6019  13.6019
    14.5410  14.5410  17.1199  17.1199  22.6293  22.6293  25.5058  25.5058
    27.5802  27.5802  34.2842  34.2842

          k =-0.3750 0.3750 0.3750 (   395 PWs)   bands (ev):

     8.3735   8.3735  10.6002  10.6002  11.8248  11.8248  12.4557  12.4557
    13.6700  13.6700  14.1630  14.1630  22.3390  22.3390  31.6435  31.6435
    33.9030  33.9030  35.6464  35.6464

          k = 0.3750-0.3750 1.1250 (   396 PWs)   bands (ev):

     9.5214   9.5214  10.3476  10.3476  11.4231  11.4231  12.4138  12.4138
    13.8024  13.8024  17.9831  17.9831  20.8995  20.8995  25.9885  25.9885
    31.7109  31.7109  33.3295  33.3295

     the Fermi energy is    16.1641 ev

!    total energy              =    -760.29887880 Ry
     Harris-Foulkes estimate   =    -760.29887880 Ry
     estimated scf accuracy    <          1.4E-10 Ry

     total all-electron energy =    -38075.422228 Ry

     The total energy is the sum of the following terms:

     one-electron contribution =      14.57348653 Ry
     hartree contribution      =       7.29716150 Ry
     xc contribution           =     -31.40564203 Ry
     ewald contribution        =     -72.36737685 Ry
     one-center paw contrib.   =    -678.39431350 Ry
     smearing contrib. (-TS)   =      -0.00219444 Ry

     convergence has been achieved in   6 iterations

     Writing output data file gold.save
 
     init_run     :      0.88s CPU      0.91s WALL (       1 calls)
     electrons    :      3.49s CPU      3.65s WALL (       1 calls)

     Called by init_run:
     wfcinit      :      0.08s CPU      0.09s WALL (       1 calls)
     potinit      :      0.11s CPU      0.12s WALL (       1 calls)

     Called by electrons:
     c_bands      :      1.78s CPU      1.80s WALL (       7 calls)
     sum_band     :      0.77s CPU      0.85s WALL (       7 calls)
     v_of_rho     :      0.01s CPU      0.01s WALL (       7 calls)
     newd         :      0.31s CPU      0.38s WALL (       7 calls)
     PAW_pot      :      0.71s CPU      0.72s WALL (       7 calls)
     mix_rho      :      0.02s CPU      0.02s WALL (       7 calls)

     Called by c_bands:
     init_us_2    :      0.02s CPU      0.02s WALL (     150 calls)
     cegterg      :      1.55s CPU      1.57s WALL (      70 calls)

     Called by sum_band:
     sum_band:bec :      0.09s CPU      0.10s WALL (      70 calls)
     addusdens    :      0.31s CPU      0.39s WALL (       7 calls)

     Called by *egterg:
     h_psi        :      1.24s CPU      1.26s WALL (     231 calls)
     s_psi        :      0.06s CPU      0.05s WALL (     231 calls)
     g_psi        :      0.01s CPU      0.01s WALL (     151 calls)
     cdiaghg      :      0.17s CPU      0.17s WALL (     211 calls)

     Called by h_psi:
     add_vuspsi   :      0.06s CPU      0.06s WALL (     231 calls)

     General routines
     calbec       :      0.06s CPU      0.05s WALL (     301 calls)
     fft          :      0.05s CPU      0.05s WALL (     162 calls)
     ffts         :      0.01s CPU      0.01s WALL (      56 calls)
     fftw         :      1.15s CPU      1.16s WALL (   16628 calls)
     interpolate  :      0.02s CPU      0.02s WALL (      56 calls)
 
     Parallel routines
     fft_scatter  :      0.24s CPU      0.29s WALL (   16846 calls)
 
     PWSCF        :     5.53s CPU         5.75s WALL

 
   This run was terminated on:  16: 6:17  21Jul2016            

=------------------------------------------------------------------------------=
   JOB DONE.
=------------------------------------------------------------------------------=
