
     Program PHONON v.5.4.0 (svn rev. 12620M) starts on 28Jul2016 at 11:52: 1 

     This program is part of the open-source Quantum ESPRESSO suite
     for quantum simulation of materials; please cite
         "P. Giannozzi et al., J. Phys.:Condens. Matter 21 395502 (2009);
          URL http://www.quantum-espresso.org", 
     in publications or presentations arising from this work. More details at
     http://www.quantum-espresso.org/quote
 
           HOST :    x86_64-pc-linux-gnu
           ARCH :    x86_64
             CC :    icc
            CPP :    cpp
            F90 :    ifort
            F77 :    ifort
         DFLAGS :    -D__INTEL -D__FFTW -D__MPI -D__PARA -D__HDF5
      BLAS LIBS :    -lmkl_intel_lp64  -lmkl_sequential -lmkl_core
    LAPACK LIBS :    
       FFT LIBS :    
      MASS LIBS :    

     Parallel version (MPI), running on     2 processors
     R & G space division:  proc/nbgrp/npool/nimage =       2

     Reading data from directory:
     /home/nvarini/espresso_hdf5/espresso/tempdir/3.4/alas.save

   Info: using nr1, nr2, nr3 values from input

   Info: using nr1, nr2, nr3 values from input

     IMPORTANT: XC functional enforced from input :
     Exchange-correlation      =  SLA  PZ   NOGX NOGC ( 1  1  0  0 0 0)
     Any further DFT definition will be discarded
     Please, verify this is what you really want

 
     Parallelization info
     --------------------
     sticks:   dense  smooth     PW     G-vecs:    dense   smooth      PW
     Min         120     120     42                 1221     1221     229
     Max         121     121     43                 1224     1224     230
     Sum         241     241     85                 2445     2445     459
 
        1 /   8 q-points for this run, from  3 to  3:
       N       xq(1)         xq(2)         xq(3) 
       1   0.000000000   0.000000000   0.000000000
       2  -0.250000000   0.250000000  -0.250000000
       3   0.500000000  -0.500000000   0.500000000
       4   0.000000000   0.500000000   0.000000000
       5   0.750000000  -0.250000000   0.750000000
       6   0.500000000   0.000000000   0.500000000
       7   0.000000000  -1.000000000   0.000000000
       8  -0.500000000  -1.000000000   0.000000000
 

     Calculation of q =    0.5000000  -0.5000000   0.5000000

     Bands found: reading from /home/nvarini/espresso_hdf5/espresso/tempdir/3.4/_ph0/alas.q_3/

     Reading data from directory:
     /home/nvarini/espresso_hdf5/espresso/tempdir/3.4/_ph0/alas.q_3/alas.save

   Info: using nr1, nr2, nr3 values from input

   Info: using nr1, nr2, nr3 values from input

     IMPORTANT: XC functional enforced from input :
     Exchange-correlation      =  SLA  PZ   NOGX NOGC ( 1  1  0  0 0 0)
     Any further DFT definition will be discarded
     Please, verify this is what you really want

 
     Parallelization info
     --------------------
     sticks:   dense  smooth     PW     G-vecs:    dense   smooth      PW
     Min         120     120     42                 1221     1221     267
     Max         121     121     43                 1224     1224     270
     Sum         241     241     85                 2445     2445     537
 

                                                                                

     bravais-lattice index     =            2
     lattice parameter (alat)  =      10.5000  a.u.
     unit-cell volume          =     289.4062 (a.u.)^3
     number of atoms/cell      =            2
     number of atomic types    =            2
     kinetic-energy cut-off    =      16.0000  Ry
     charge density cut-off    =      64.0000  Ry
     convergence threshold     =      1.0E-12
     beta                      =       0.7000
     number of iterations used =            4
     Exchange-correlation      =  SLA  PZ   NOGX NOGC ( 1  1  0  0 0 0)


     celldm(1)=   10.50000  celldm(2)=    0.00000  celldm(3)=    0.00000
     celldm(4)=    0.00000  celldm(5)=    0.00000  celldm(6)=    0.00000

     crystal axes: (cart. coord. in units of alat)
               a(1) = ( -0.5000  0.0000  0.5000 )  
               a(2) = (  0.0000  0.5000  0.5000 )  
               a(3) = ( -0.5000  0.5000  0.0000 )  

     reciprocal axes: (cart. coord. in units 2 pi/alat)
               b(1) = ( -1.0000 -1.0000  1.0000 )  
               b(2) = (  1.0000  1.0000  1.0000 )  
               b(3) = ( -1.0000  1.0000 -1.0000 )  


     Atoms inside the unit cell: 

     Cartesian axes

     site n.  atom      mass           positions (alat units)
        1     Al  26.9800   tau(    1) = (    0.00000    0.00000    0.00000  )
        2     As  74.9200   tau(    2) = (    0.25000    0.25000    0.25000  )

     Computing dynamical matrix for 
                    q = (   0.5000000  -0.5000000   0.5000000 )
 
      7 Sym.Ops. (with q -> -q+G )


     G cutoff =  178.7306  (   1224 G-vectors)     FFT grid: ( 20, 20, 20)
     number of k points=    10

     PseudoPot. # 1 for Al read from file:
     /home/nvarini/espresso_hdf5/espresso/pseudo/Al.pz-vbc.UPF
     MD5 check sum: 614279c88ff8d45c90147292d03ed420
     Pseudo is Norm-conserving, Zval =  3.0
     Generated by new atomic code, or converted to UPF format
     Using radial grid of  171 points,  2 beta functions with: 
                l(1) =   0
                l(2) =   1

     PseudoPot. # 2 for As read from file:
     /home/nvarini/espresso_hdf5/espresso/pseudo/As.pz-bhs.UPF
     MD5 check sum: 451cd3365afcfc94d28b1934951c34a8
     Pseudo is Norm-conserving, Zval =  5.0
     Generated by new atomic code, or converted to UPF format
     Using radial grid of  525 points,  2 beta functions with: 
                l(1) =   0
                l(2) =   1

     Mode symmetry, C_3v (3m)   point group:


     Atomic displacements:
     There are   4 irreducible representations

     Representation     1      1 modes -A_1  L_1  Not done in this run

     Representation     2      1 modes -A_1  L_1  Not done in this run

     Representation     3      2 modes -E    L_3  Not done in this run

     Representation     4      2 modes -E    L_3  To be done

     Compute atoms:     1,


     PHONON       :     0.66s CPU         0.83s WALL



     Representation #  4 modes #   5  6

     Self-consistent Calculation

      iter #   1 total cpu time :     0.9 secs   av.it.:   4.8
      thresh= 1.000E-02 alpha_mix =  0.700 |ddv_scf|^2 =  1.481E-07

      iter #   2 total cpu time :     1.0 secs   av.it.:   9.0
      thresh= 3.849E-05 alpha_mix =  0.700 |ddv_scf|^2 =  8.860E-09

      iter #   3 total cpu time :     1.0 secs   av.it.:   9.0
      thresh= 9.413E-06 alpha_mix =  0.700 |ddv_scf|^2 =  1.468E-10

      iter #   4 total cpu time :     1.1 secs   av.it.:   9.1
      thresh= 1.212E-06 alpha_mix =  0.700 |ddv_scf|^2 =  7.526E-12

      iter #   5 total cpu time :     1.2 secs   av.it.:   8.2
      thresh= 2.743E-07 alpha_mix =  0.700 |ddv_scf|^2 =  2.734E-15

     End of self-consistent calculation

     Convergence has been achieved 

     Not diagonalizing because representation    0 is not done
 
     PHONON       :     0.98s CPU         1.17s WALL

     INITIALIZATION: 
     phq_setup    :      0.01s CPU      0.01s WALL (       1 calls)
     phq_init     :      0.01s CPU      0.01s WALL (       1 calls)
 
     phq_init     :      0.01s CPU      0.01s WALL (       1 calls)
     init_vloc    :      0.00s CPU      0.00s WALL (       2 calls)
     init_us_1    :      0.02s CPU      0.02s WALL (       2 calls)
 
     DYNAMICAL MATRIX:
     phqscf       :      0.32s CPU      0.34s WALL (       1 calls)
     dynmatrix    :      0.00s CPU      0.00s WALL (       1 calls)
 
     phqscf       :      0.32s CPU      0.34s WALL (       1 calls)
     solve_linter :      0.32s CPU      0.33s WALL (       1 calls)
     drhodv       :      0.00s CPU      0.00s WALL (       1 calls)
 
 
 
     phqscf       :      0.32s CPU      0.34s WALL (       1 calls)
     solve_linter :      0.32s CPU      0.33s WALL (       1 calls)
 
     solve_linter :      0.32s CPU      0.33s WALL (       1 calls)
     dvqpsi_us    :      0.01s CPU      0.01s WALL (      10 calls)
     ortho        :      0.00s CPU      0.00s WALL (      50 calls)
     cgsolve      :      0.22s CPU      0.22s WALL (      50 calls)
     incdrhoscf   :      0.02s CPU      0.02s WALL (      50 calls)
     vpsifft      :      0.02s CPU      0.02s WALL (      40 calls)
     dv_of_drho   :      0.00s CPU      0.00s WALL (      10 calls)
     mix_pot      :      0.00s CPU      0.00s WALL (       5 calls)
     psymdvscf    :      0.02s CPU      0.02s WALL (       5 calls)
 
     dvqpsi_us    :      0.01s CPU      0.01s WALL (      10 calls)
     dvqpsi_us_on :      0.00s CPU      0.00s WALL (      10 calls)
 
     cgsolve      :      0.22s CPU      0.22s WALL (      50 calls)
     ch_psi       :      0.21s CPU      0.21s WALL (     475 calls)
 
     ch_psi       :      0.21s CPU      0.21s WALL (     475 calls)
     last         :      0.02s CPU      0.02s WALL (     475 calls)
 
     add_vuspsi   :      0.00s CPU      0.01s WALL (     475 calls)
 
     incdrhoscf   :      0.02s CPU      0.02s WALL (      50 calls)
 
 
      General routines
     calbec       :      0.02s CPU      0.02s WALL (    1010 calls)
     fft          :      0.00s CPU      0.00s WALL (      36 calls)
     ffts         :      0.00s CPU      0.00s WALL (      16 calls)
     fftw         :      0.19s CPU      0.19s WALL (    4178 calls)
     davcio       :      0.00s CPU      0.00s WALL (     178 calls)
     write_rec    :      0.00s CPU      0.01s WALL (       6 calls)
 
 
     PHONON       :     0.98s CPU         1.17s WALL

 
   This run was terminated on:  11:52: 2  28Jul2016            

=------------------------------------------------------------------------------=
   JOB DONE.
=------------------------------------------------------------------------------=
