
     Program PHONON v.6.beta (svn rev. 12834M) starts on 25Aug2016 at 11: 6:23 

     This program is part of the open-source Quantum ESPRESSO suite
     for quantum simulation of materials; please cite
         "P. Giannozzi et al., J. Phys.:Condens. Matter 21 395502 (2009);
          URL http://www.quantum-espresso.org", 
     in publications or presentations arising from this work. More details at
     http://www.quantum-espresso.org/quote
 
           HOST :    x86_64-pc-linux-gnu
           ARCH :    x86_64
             CC :    icc
            CPP :    cpp
            F90 :    ifort
            F77 :    ifort
         DFLAGS :    -D__INTEL -D__FFTW -D__MPI -D__PARA -D__HDF5
      BLAS LIBS :    -lmkl_intel_lp64  -lmkl_sequential -lmkl_core
    LAPACK LIBS :    
       FFT LIBS :    
      MASS LIBS :    

     Parallel version (MPI), running on     2 processors
     R & G space division:  proc/nbgrp/npool/nimage =       2

     Reading data from directory:
     /home/nvarini/espresso_hdf5/espresso/tempdir/carbon.save

   Info: using nr1, nr2, nr3 values from input

   Info: using nr1, nr2, nr3 values from input

     IMPORTANT: XC functional enforced from input :
     Exchange-correlation      =  SLA  PZ   NOGX NOGC ( 1  1  0  0 0 0)
     Any further DFT definition will be discarded
     Please, verify this is what you really want

 
     Parallelization info
     --------------------
     sticks:   dense  smooth     PW     G-vecs:    dense   smooth      PW
     Min         231      81     30                 3283      705     165
     Max         232      82     31                 3284      706     166
     Sum         463     163     61                 6567     1411     331
 

     Check: negative/imaginary core charge=   -0.000005    0.000000

     Calculation of q =    0.0000000   0.0000000   0.0000000

                                                                                

     bravais-lattice index     =            2
     lattice parameter (alat)  =       6.6800  a.u.
     unit-cell volume          =      74.5194 (a.u.)^3
     number of atoms/cell      =            2
     number of atomic types    =            1
     kinetic-energy cut-off    =      27.0000  Ry
     charge density cut-off    =     300.0000  Ry
     convergence threshold     =      1.0E-14
     beta                      =       0.7000
     number of iterations used =            4
     Exchange-correlation      =  SLA  PZ   NOGX NOGC ( 1  1  0  0 0 0)


     celldm(1)=    6.68000  celldm(2)=    0.00000  celldm(3)=    0.00000
     celldm(4)=    0.00000  celldm(5)=    0.00000  celldm(6)=    0.00000

     crystal axes: (cart. coord. in units of alat)
               a(1) = ( -0.5000  0.0000  0.5000 )  
               a(2) = (  0.0000  0.5000  0.5000 )  
               a(3) = ( -0.5000  0.5000  0.0000 )  

     reciprocal axes: (cart. coord. in units 2 pi/alat)
               b(1) = ( -1.0000 -1.0000  1.0000 )  
               b(2) = (  1.0000  1.0000  1.0000 )  
               b(3) = ( -1.0000  1.0000 -1.0000 )  


     Atoms inside the unit cell: 

     Cartesian axes

     site n.  atom      mass           positions (alat units)
        1     C   12.0107   tau(    1) = (    0.00000    0.00000    0.00000  )
        2     C   12.0107   tau(    2) = (    0.25000    0.25000    0.25000  )

     Computing dynamical matrix for 
                    q = (   0.0000000   0.0000000   0.0000000 )
 
     49 Sym.Ops. (with q -> -q+G )


     G cutoff =  339.0896  (   3283 G-vectors)     FFT grid: ( 32, 32, 32)
     G cutoff =  122.0722  (    705 G-vectors)  smooth grid: ( 15, 15, 15)
     number of k points=    10
                       cart. coord. in units 2pi/alat
        k(    1) = (  -0.1250000   0.1250000   0.1250000), wk =   0.0625000
        k(    2) = (  -0.3750000   0.3750000  -0.1250000), wk =   0.1875000
        k(    3) = (   0.3750000  -0.3750000   0.6250000), wk =   0.1875000
        k(    4) = (   0.1250000  -0.1250000   0.3750000), wk =   0.1875000
        k(    5) = (  -0.1250000   0.6250000   0.1250000), wk =   0.1875000
        k(    6) = (   0.6250000  -0.1250000   0.8750000), wk =   0.3750000
        k(    7) = (   0.3750000   0.1250000   0.6250000), wk =   0.3750000
        k(    8) = (  -0.1250000  -0.8750000   0.1250000), wk =   0.1875000
        k(    9) = (  -0.3750000   0.3750000   0.3750000), wk =   0.0625000
        k(   10) = (   0.3750000  -0.3750000   1.1250000), wk =   0.1875000

     PseudoPot. # 1 for  C read from file:
     /home/nvarini/espresso_hdf5/espresso/pseudo/C.pz-kjpaw.UPF
     MD5 check sum: 414e6e825ae75add557e798061b49a04
     Pseudo is Projector augmented-wave + core cor, Zval =  4.0
     Generated using "atomic" code by A. Dal Corso (espresso distribution)
     Shape of augmentation charge: BESSEL
     Using radial grid of 1073 points,  4 beta functions with: 
                l(1) =   0
                l(2) =   0
                l(3) =   1
                l(4) =   1
     Q(r) pseudized with 0 coefficients 


     Mode symmetry, O_h (m-3m)  point group:


     Electric field:
     Dielectric constant
     Born effective charges in two ways 


     Atomic displacements:
     There are   2 irreducible representations

     Representation     1      3 modes -T_2g G_25' G_5+  To be done

     Representation     2      3 modes -T_1u G_15  G_4-  To be done



     Alpha used in Ewald sum =   2.8000
     PHONON       :     1.06s CPU         1.10s WALL


     Electric Fields Calculation

      iter #   1 total cpu time :     1.7 secs   av.it.:   6.4
      thresh= 1.000E-02 alpha_mix =  0.700 |ddv_scf|^2 =  1.420E-08

      iter #   2 total cpu time :     2.1 secs   av.it.:  11.4
      thresh= 1.192E-05 alpha_mix =  0.700 |ddv_scf|^2 =  1.973E-10

      iter #   3 total cpu time :     2.5 secs   av.it.:  11.4
      thresh= 1.404E-06 alpha_mix =  0.700 |ddv_scf|^2 =  8.274E-12

      iter #   4 total cpu time :     2.9 secs   av.it.:  11.6
      thresh= 2.876E-07 alpha_mix =  0.700 |ddv_scf|^2 =  2.325E-14

      iter #   5 total cpu time :     3.3 secs   av.it.:  10.6
      thresh= 1.525E-08 alpha_mix =  0.700 |ddv_scf|^2 =  3.763E-17

     End of electric fields calculation

          Dielectric constant in cartesian axis 

          (       5.783339163       0.000000000       0.000000000 )
          (       0.000000000       5.783339163      -0.000000000 )
          (       0.000000000      -0.000000000       5.783339163 )

          Effective charges (d Force / dE) in cartesian axis

           atom      1   C  
      Ex  (        0.09271        0.00000        0.00000 )
      Ey  (        0.00000        0.09271       -0.00000 )
      Ez  (        0.00000       -0.00000        0.09271 )
           atom      2   C  
      Ex  (        0.09271        0.00000        0.00000 )
      Ey  (       -0.00000        0.09271       -0.00000 )
      Ez  (        0.00000       -0.00000        0.09271 )


     Representation #  1 modes #   1  2  3

     Self-consistent Calculation

      iter #   1 total cpu time :     3.9 secs   av.it.:   7.1
      thresh= 1.000E-02 alpha_mix =  0.700 |ddv_scf|^2 =  2.352E-07

      iter #   2 total cpu time :     4.4 secs   av.it.:  11.6
      thresh= 4.850E-05 alpha_mix =  0.700 |ddv_scf|^2 =  1.974E-09

      iter #   3 total cpu time :     4.8 secs   av.it.:  11.3
      thresh= 4.442E-06 alpha_mix =  0.700 |ddv_scf|^2 =  2.085E-10

      iter #   4 total cpu time :     5.2 secs   av.it.:  11.1
      thresh= 1.444E-06 alpha_mix =  0.700 |ddv_scf|^2 =  4.890E-12

      iter #   5 total cpu time :     5.7 secs   av.it.:  10.4
      thresh= 2.211E-07 alpha_mix =  0.700 |ddv_scf|^2 =  1.269E-15

     End of self-consistent calculation

     Convergence has been achieved 


     Representation #  2 modes #   4  5  6

     Self-consistent Calculation

      iter #   1 total cpu time :     6.1 secs   av.it.:   7.1
      thresh= 1.000E-02 alpha_mix =  0.700 |ddv_scf|^2 =  1.377E-07

      iter #   2 total cpu time :     6.5 secs   av.it.:  11.4
      thresh= 3.710E-05 alpha_mix =  0.700 |ddv_scf|^2 =  1.663E-09

      iter #   3 total cpu time :     7.0 secs   av.it.:  11.2
      thresh= 4.078E-06 alpha_mix =  0.700 |ddv_scf|^2 =  2.498E-10

      iter #   4 total cpu time :     7.4 secs   av.it.:  11.1
      thresh= 1.580E-06 alpha_mix =  0.700 |ddv_scf|^2 =  5.963E-12

      iter #   5 total cpu time :     7.8 secs   av.it.:  10.5
      thresh= 2.442E-07 alpha_mix =  0.700 |ddv_scf|^2 =  5.814E-16

     End of self-consistent calculation

     Convergence has been achieved 
 
     Number of q in the star =    1
     List of q in the star:
          1   0.000000000   0.000000000   0.000000000

          Dielectric constant in cartesian axis 

          (       5.783339163       0.000000000       0.000000000 )
          (       0.000000000       5.783339163      -0.000000000 )
          (       0.000000000      -0.000000000       5.783339163 )

          Effective charges (d Force / dE) in cartesian axis

           atom      1   C  
      Ex  (        0.09271        0.00000        0.00000 )
      Ey  (        0.00000        0.09271       -0.00000 )
      Ez  (        0.00000       -0.00000        0.09271 )
           atom      2   C  
      Ex  (        0.09271        0.00000        0.00000 )
      Ey  (       -0.00000        0.09271       -0.00000 )
      Ez  (        0.00000       -0.00000        0.09271 )

          Effective charges (d P / du) in cartesian axis 

           atom      1   C  
      Px  (        0.09266        0.00000       -0.00000 )
      Py  (        0.00000        0.09266        0.00000 )
      Pz  (       -0.00000        0.00000        0.09266 )
           atom      2   C  
      Px  (        0.09266        0.00000        0.00000 )
      Py  (        0.00000        0.09266        0.00000 )
      Pz  (        0.00000        0.00000        0.09266 )

     Diagonalizing the dynamical matrix

     q = (    0.000000000   0.000000000   0.000000000 ) 

 **************************************************************************
     freq (    1) =      -0.328871 [THz] =     -10.969957 [cm-1]
     freq (    2) =      -0.328871 [THz] =     -10.969957 [cm-1]
     freq (    3) =      -0.328871 [THz] =     -10.969957 [cm-1]
     freq (    4) =      39.214353 [THz] =    1308.050010 [cm-1]
     freq (    5) =      39.214353 [THz] =    1308.050010 [cm-1]
     freq (    6) =      39.214353 [THz] =    1308.050010 [cm-1]
 **************************************************************************

     Mode symmetry, O_h (m-3m)  point group:

     freq (  1 -  3) =        -11.0  [cm-1]   --> T_1u G_15  G_4- I  
     freq (  4 -  6) =       1308.1  [cm-1]   --> T_2g G_25' G_5+ R  
 
     PHONON       :     7.56s CPU         7.89s WALL

     INITIALIZATION: 
     phq_setup    :      0.01s CPU      0.01s WALL (       1 calls)
     phq_init     :      0.33s CPU      0.33s WALL (       1 calls)
 
     phq_init     :      0.33s CPU      0.33s WALL (       1 calls)
     set_drhoc    :      0.21s CPU      0.21s WALL (       3 calls)
     init_vloc    :      0.00s CPU      0.00s WALL (       1 calls)
     init_us_1    :      0.11s CPU      0.12s WALL (       1 calls)
     newd         :      0.00s CPU      0.00s WALL (       1 calls)
     dvanqq       :      0.03s CPU      0.03s WALL (       1 calls)
     drho         :      0.04s CPU      0.04s WALL (       1 calls)
     cmpt_qdipol  :      0.00s CPU      0.00s WALL (       1 calls)
 
     DIELECTRIC CONSTANT AND EFFECTIVE CHARGES:
     solve_e      :      2.10s CPU      2.19s WALL (       1 calls)
     dielec       :      0.00s CPU      0.00s WALL (       1 calls)
     zstar_eu     :      0.27s CPU      0.29s WALL (       1 calls)
 
     DYNAMICAL MATRIX:
     dynmat0      :      0.15s CPU      0.15s WALL (       1 calls)
     phqscf       :      4.12s CPU      4.31s WALL (       1 calls)
     dynmatrix    :      0.00s CPU      0.00s WALL (       1 calls)
 
     phqscf       :      4.12s CPU      4.31s WALL (       1 calls)
     solve_linter :      4.02s CPU      4.20s WALL (       2 calls)
     drhodv       :      0.00s CPU      0.01s WALL (       2 calls)
     add_zstar_ue :      0.00s CPU      0.00s WALL (       2 calls)
     add_zstar_us :      0.09s CPU      0.09s WALL (       2 calls)
 
     dynmat0      :      0.15s CPU      0.15s WALL (       1 calls)
     dynmat_us    :      0.01s CPU      0.01s WALL (       1 calls)
     d2ionq       :      0.00s CPU      0.00s WALL (       1 calls)
     dynmatcc     :      0.14s CPU      0.14s WALL (       1 calls)
 
     dynmat_us    :      0.01s CPU      0.01s WALL (       1 calls)
     addusdynmat  :      0.00s CPU      0.00s WALL (       1 calls)
 
     phqscf       :      4.12s CPU      4.31s WALL (       1 calls)
     solve_linter :      4.02s CPU      4.20s WALL (       2 calls)
 
     solve_linter :      4.02s CPU      4.20s WALL (       2 calls)
     dvqpsi_us    :      0.06s CPU      0.05s WALL (     120 calls)
     ortho        :      0.02s CPU      0.03s WALL (     480 calls)
     cgsolve      :      2.27s CPU      2.41s WALL (     480 calls)
     incdrhoscf   :      0.14s CPU      0.15s WALL (     480 calls)
     addusddens   :      0.07s CPU      0.07s WALL (      12 calls)
     vpsifft      :      0.06s CPU      0.06s WALL (     240 calls)
     dv_of_drho   :      0.06s CPU      0.06s WALL (      48 calls)
     mix_pot      :      0.06s CPU      0.09s WALL (      15 calls)
     psymdvscf    :      1.72s CPU      1.74s WALL (      10 calls)
     newdq        :      0.14s CPU      0.14s WALL (      15 calls)
     adddvscf     :      0.00s CPU      0.00s WALL (     360 calls)
     drhodvus     :      0.00s CPU      0.00s WALL (       2 calls)
 
     dvqpsi_us    :      0.06s CPU      0.05s WALL (     120 calls)
     dvqpsi_us_on :      0.02s CPU      0.01s WALL (     120 calls)
 
     cgsolve      :      2.27s CPU      2.41s WALL (     480 calls)
     ch_psi       :      2.14s CPU      2.30s WALL (    6161 calls)
 
     ch_psi       :      2.14s CPU      2.30s WALL (    6161 calls)
     last         :      0.25s CPU      0.28s WALL (    6161 calls)
 
     add_vuspsi   :      0.06s CPU      0.07s WALL (    6161 calls)
 
     incdrhoscf   :      0.14s CPU      0.15s WALL (     480 calls)
     addusdbec    :      0.01s CPU      0.01s WALL (     540 calls)
 
     drhodvus     :      0.00s CPU      0.00s WALL (       2 calls)
 
      General routines
     calbec       :      0.25s CPU      0.27s WALL (   16622 calls)
     fft          :      0.11s CPU      0.12s WALL (     441 calls)
     ffts         :      0.01s CPU      0.01s WALL (     238 calls)
     fftw         :      1.36s CPU      1.47s WALL (   51418 calls)
     davcio       :      0.04s CPU      0.07s WALL (    2802 calls)
     write_rec    :      0.03s CPU      0.05s WALL (      17 calls)
 
 
     PHONON       :     7.56s CPU         7.89s WALL

 
   This run was terminated on:  11: 6:31  25Aug2016            

=------------------------------------------------------------------------------=
   JOB DONE.
=------------------------------------------------------------------------------=
