
     Program PHONON v.5.4.0 (svn rev. 12650M) starts on  3Aug2016 at 10:41:13 

     This program is part of the open-source Quantum ESPRESSO suite
     for quantum simulation of materials; please cite
         "P. Giannozzi et al., J. Phys.:Condens. Matter 21 395502 (2009);
          URL http://www.quantum-espresso.org", 
     in publications or presentations arising from this work. More details at
     http://www.quantum-espresso.org/quote
 
           HOST :    x86_64-pc-linux-gnu
           ARCH :    x86_64
             CC :    icc
            CPP :    cpp
            F90 :    ifort
            F77 :    ifort
         DFLAGS :    -D__INTEL -D__FFTW -D__MPI -D__PARA -D__HDF5
      BLAS LIBS :    -lmkl_intel_lp64  -lmkl_sequential -lmkl_core
    LAPACK LIBS :    
       FFT LIBS :    
      MASS LIBS :    

     Parallel version (MPI), running on     2 processors
     R & G space division:  proc/nbgrp/npool/nimage =       2

     Reading data from directory:
     /home/nvarini/espresso_hdf5/espresso/tempdir/ch4.save

   Info: using nr1, nr2, nr3 values from input

   Info: using nr1, nr2, nr3 values from input

     IMPORTANT: XC functional enforced from input :
     Exchange-correlation      =  SLA  PZ   NOGX NOGC ( 1  1  0  0 0 0)
     Any further DFT definition will be discarded
     Please, verify this is what you really want

 
     Parallelization info
     --------------------
     sticks:   dense  smooth     PW     G-vecs:    dense   smooth      PW
     Min        2692     894    218               148229    28524    3560
     Max        2693     895    219               148230    28527    3563
     Sum        5385    1789    437               296459    57051    7123
 

     negative rho (up, down):  3.527E-05 0.000E+00

     Calculation of q =    0.0000000   0.0000000   0.0000000

                                                                                

     bravais-lattice index     =            1
     lattice parameter (alat)  =      15.0000  a.u.
     unit-cell volume          =    3375.0000 (a.u.)^3
     number of atoms/cell      =            5
     number of atomic types    =            2
     kinetic-energy cut-off    =      25.0000  Ry
     charge density cut-off    =     300.0000  Ry
     convergence threshold     =      4.0E-17
     beta                      =       0.7000
     number of iterations used =            4
     Exchange-correlation      =  SLA  PZ   NOGX NOGC ( 1  1  0  0 0 0)


     celldm(1)=   15.00000  celldm(2)=    0.00000  celldm(3)=    0.00000
     celldm(4)=    0.00000  celldm(5)=    0.00000  celldm(6)=    0.00000

     crystal axes: (cart. coord. in units of alat)
               a(1) = (  1.0000  0.0000  0.0000 )  
               a(2) = (  0.0000  1.0000  0.0000 )  
               a(3) = (  0.0000  0.0000  1.0000 )  

     reciprocal axes: (cart. coord. in units 2 pi/alat)
               b(1) = (  1.0000  0.0000  0.0000 )  
               b(2) = (  0.0000  1.0000  0.0000 )  
               b(3) = (  0.0000  0.0000  1.0000 )  


     Atoms inside the unit cell: 

     Cartesian axes

     site n.  atom      mass           positions (alat units)
        1     H    1.0000   tau(    1) = (    0.08073    0.08073    0.08073  )
        2     H    1.0000   tau(    2) = (   -0.08073   -0.08073    0.08073  )
        3     H    1.0000   tau(    3) = (    0.08073   -0.08073   -0.08073  )
        4     H    1.0000   tau(    4) = (   -0.08073    0.08073   -0.08073  )
        5     C   12.0000   tau(    5) = (    0.00000    0.00000    0.00000  )

     Computing dynamical matrix for 
                    q = (   0.0000000   0.0000000   0.0000000 )
 
     25 Sym.Ops. (with q -> -q+G )


     G cutoff = 1709.7950  ( 148230 G-vectors)     FFT grid: ( 90, 90, 90)
     G cutoff =  569.9317  (  28527 G-vectors)  smooth grid: ( 48, 48, 48)
     number of k points=     1
                       cart. coord. in units 2pi/alat
        k(    1) = (   0.0000000   0.0000000   0.0000000), wk =   2.0000000

     PseudoPot. # 1 for  H read from file:
     /home/nvarini/espresso_hdf5/espresso/pseudo/H.pz-kjpaw.UPF
     MD5 check sum: cc591b1df2b23d1817e99afd75b23f5a
     Pseudo is Projector augmented-wave, Zval =  1.0
     Generated using "atomic" code by A. Dal Corso (espresso distribution)
     Shape of augmentation charge: PSQ
     Using radial grid of  929 points,  2 beta functions with: 
                l(1) =   0
                l(2) =   0
     Q(r) pseudized with 0 coefficients 


     PseudoPot. # 2 for  C read from file:
     /home/nvarini/espresso_hdf5/espresso/pseudo/C.pz-kjpaw.UPF
     MD5 check sum: 414e6e825ae75add557e798061b49a04
     Pseudo is Projector augmented-wave + core cor, Zval =  4.0
     Generated using "atomic" code by A. Dal Corso (espresso distribution)
     Shape of augmentation charge: BESSEL
     Using radial grid of 1073 points,  4 beta functions with: 
                l(1) =   0
                l(2) =   0
                l(3) =   1
                l(4) =   1
     Q(r) pseudized with 0 coefficients 


     Mode symmetry, T_d (-43m)  point group:

     k=gamma and q=gamma tricks are used


     Electric field:
     Dielectric constant and polarizability
     Born effective charges in two ways 


     Atomic displacements:
     There are  15 irreducible representations

     Representation     1      1 modes -A  To be done

     Representation     2      1 modes -A  To be done

     Representation     3      1 modes -A  To be done

     Representation     4      1 modes - Calculated using symmetry

     Representation     5      1 modes - Calculated using symmetry

     Representation     6      1 modes - Calculated using symmetry

     Representation     7      1 modes - Calculated using symmetry

     Representation     8      1 modes - Calculated using symmetry

     Representation     9      1 modes - Calculated using symmetry

     Representation    10      1 modes - Calculated using symmetry

     Representation    11      1 modes - Calculated using symmetry

     Representation    12      1 modes - Calculated using symmetry

     Representation    13      1 modes - Calculated using asr

     Representation    14      1 modes - Calculated using asr

     Representation    15      1 modes - Calculated using asr



     Alpha used in Ewald sum =   2.8000

     negative rho (up, down):  3.527E-05 0.000E+00
     PHONON       :    19.03s CPU        19.44s WALL


     Electric Fields Calculation

      iter #   1 total cpu time :    21.2 secs   av.it.:   6.0
      thresh= 1.000E-02 alpha_mix =  0.700 |ddv_scf|^2 =  1.436E-08

      iter #   2 total cpu time :    22.6 secs   av.it.:  11.0
      thresh= 1.198E-05 alpha_mix =  0.700 |ddv_scf|^2 =  1.138E-09

      iter #   3 total cpu time :    24.0 secs   av.it.:  11.0
      thresh= 3.373E-06 alpha_mix =  0.700 |ddv_scf|^2 =  6.623E-11

      iter #   4 total cpu time :    25.4 secs   av.it.:  11.0
      thresh= 8.138E-07 alpha_mix =  0.700 |ddv_scf|^2 =  8.769E-14

      iter #   5 total cpu time :    26.9 secs   av.it.:  12.0
      thresh= 2.961E-08 alpha_mix =  0.700 |ddv_scf|^2 =  4.941E-16

      iter #   6 total cpu time :    28.4 secs   av.it.:  12.0
      thresh= 2.223E-09 alpha_mix =  0.700 |ddv_scf|^2 =  6.822E-17

      iter #   7 total cpu time :    29.7 secs   av.it.:  10.7
      thresh= 8.260E-10 alpha_mix =  0.700 |ddv_scf|^2 =  1.259E-17

     End of electric fields calculation

          Dielectric constant in cartesian axis 

          (       1.071109453       0.000000000       0.000000000 )
          (       0.000000000       1.071109453       0.000000000 )
          (       0.000000000       0.000000000       1.071109453 )

     Polarizability (a.u.)^3                    Polarizability (A^3)
     18.66      0.00      0.00             2.7645        0.0000        0.0000
      0.00     18.66      0.00             0.0000        2.7645        0.0000
      0.00      0.00     18.66             0.0000        0.0000        2.7645

          Effective charges (d Force / dE) in cartesian axis

           atom      1   H  
      Ex  (        0.02304       -0.05753       -0.05753 )
      Ey  (       -0.05753        0.02304       -0.05753 )
      Ez  (       -0.05753       -0.05753        0.02304 )
           atom      2   H  
      Ex  (        0.02304       -0.05753        0.05753 )
      Ey  (       -0.05753        0.02304        0.05753 )
      Ez  (        0.05753        0.05753        0.02304 )
           atom      3   H  
      Ex  (        0.02304        0.05753        0.05753 )
      Ey  (        0.05753        0.02304       -0.05753 )
      Ez  (        0.05753       -0.05753        0.02304 )
           atom      4   H  
      Ex  (        0.02304        0.05753       -0.05753 )
      Ey  (        0.05753        0.02304        0.05753 )
      Ez  (       -0.05753        0.05753        0.02304 )
           atom      5   C  
      Ex  (        0.06400        0.00000        0.00000 )
      Ey  (        0.00000        0.06400        0.00000 )
      Ez  (        0.00000        0.00000        0.06400 )


     Representation #  1 mode #   1

     Self-consistent Calculation

      iter #   1 total cpu time :    33.4 secs   av.it.:   5.0
      thresh= 1.000E-02 alpha_mix =  0.700 |ddv_scf|^2 =  2.333E-09

      iter #   2 total cpu time :    34.0 secs   av.it.:  12.0
      thresh= 4.830E-06 alpha_mix =  0.700 |ddv_scf|^2 =  8.387E-10

      iter #   3 total cpu time :    34.6 secs   av.it.:  10.0
      thresh= 2.896E-06 alpha_mix =  0.700 |ddv_scf|^2 =  3.842E-11

      iter #   4 total cpu time :    35.1 secs   av.it.:  11.0
      thresh= 6.199E-07 alpha_mix =  0.700 |ddv_scf|^2 =  2.309E-12

      iter #   5 total cpu time :    35.7 secs   av.it.:  11.0
      thresh= 1.520E-07 alpha_mix =  0.700 |ddv_scf|^2 =  7.719E-14

      iter #   6 total cpu time :    36.3 secs   av.it.:  11.0
      thresh= 2.778E-08 alpha_mix =  0.700 |ddv_scf|^2 =  8.716E-16

      iter #   7 total cpu time :    36.8 secs   av.it.:  11.0
      thresh= 2.952E-09 alpha_mix =  0.700 |ddv_scf|^2 =  6.070E-18

     End of self-consistent calculation

     Convergence has been achieved 


     Representation #  2 mode #   2

     Self-consistent Calculation

      iter #   1 total cpu time :    37.6 secs   av.it.:   5.0
      thresh= 1.000E-02 alpha_mix =  0.700 |ddv_scf|^2 =  2.321E-09

      iter #   2 total cpu time :    38.2 secs   av.it.:  12.0
      thresh= 4.818E-06 alpha_mix =  0.700 |ddv_scf|^2 =  8.388E-10

      iter #   3 total cpu time :    38.7 secs   av.it.:  10.0
      thresh= 2.896E-06 alpha_mix =  0.700 |ddv_scf|^2 =  3.874E-11

      iter #   4 total cpu time :    39.3 secs   av.it.:  11.0
      thresh= 6.225E-07 alpha_mix =  0.700 |ddv_scf|^2 =  2.563E-12

      iter #   5 total cpu time :    39.9 secs   av.it.:  10.0
      thresh= 1.601E-07 alpha_mix =  0.700 |ddv_scf|^2 =  8.509E-14

      iter #   6 total cpu time :    40.5 secs   av.it.:  11.0
      thresh= 2.917E-08 alpha_mix =  0.700 |ddv_scf|^2 =  8.086E-16

      iter #   7 total cpu time :    41.0 secs   av.it.:  11.0
      thresh= 2.844E-09 alpha_mix =  0.700 |ddv_scf|^2 =  6.620E-18

     End of self-consistent calculation

     Convergence has been achieved 


     Representation #  3 mode #   3

     Self-consistent Calculation

      iter #   1 total cpu time :    41.8 secs   av.it.:   5.0
      thresh= 1.000E-02 alpha_mix =  0.700 |ddv_scf|^2 =  2.291E-09

      iter #   2 total cpu time :    42.3 secs   av.it.:  12.0
      thresh= 4.786E-06 alpha_mix =  0.700 |ddv_scf|^2 =  8.030E-10

      iter #   3 total cpu time :    42.9 secs   av.it.:  10.0
      thresh= 2.834E-06 alpha_mix =  0.700 |ddv_scf|^2 =  4.184E-11

      iter #   4 total cpu time :    43.5 secs   av.it.:  11.0
      thresh= 6.468E-07 alpha_mix =  0.700 |ddv_scf|^2 =  2.337E-12

      iter #   5 total cpu time :    44.0 secs   av.it.:  11.0
      thresh= 1.529E-07 alpha_mix =  0.700 |ddv_scf|^2 =  8.271E-14

      iter #   6 total cpu time :    44.6 secs   av.it.:  11.0
      thresh= 2.876E-08 alpha_mix =  0.700 |ddv_scf|^2 =  2.377E-15

      iter #   7 total cpu time :    45.1 secs   av.it.:  10.0
      thresh= 4.876E-09 alpha_mix =  0.700 |ddv_scf|^2 =  4.832E-18

     End of self-consistent calculation

     Convergence has been achieved 
 
     Number of q in the star =    1
     List of q in the star:
          1   0.000000000   0.000000000   0.000000000

          Dielectric constant in cartesian axis 

          (       1.071109453       0.000000000       0.000000000 )
          (       0.000000000       1.071109453       0.000000000 )
          (       0.000000000       0.000000000       1.071109453 )

     Polarizability (a.u.)^3                    Polarizability (A^3)
     18.66      0.00      0.00             2.7645        0.0000        0.0000
      0.00     18.66      0.00             0.0000        2.7645        0.0000
      0.00      0.00     18.66             0.0000        0.0000        2.7645

          Effective charges (d Force / dE) in cartesian axis

           atom      1   H  
      Ex  (        0.02304       -0.05753       -0.05753 )
      Ey  (       -0.05753        0.02304       -0.05753 )
      Ez  (       -0.05753       -0.05753        0.02304 )
           atom      2   H  
      Ex  (        0.02304       -0.05753        0.05753 )
      Ey  (       -0.05753        0.02304        0.05753 )
      Ez  (        0.05753        0.05753        0.02304 )
           atom      3   H  
      Ex  (        0.02304        0.05753        0.05753 )
      Ey  (        0.05753        0.02304       -0.05753 )
      Ez  (        0.05753       -0.05753        0.02304 )
           atom      4   H  
      Ex  (        0.02304        0.05753       -0.05753 )
      Ey  (        0.05753        0.02304        0.05753 )
      Ez  (       -0.05753        0.05753        0.02304 )
           atom      5   C  
      Ex  (        0.06400        0.00000        0.00000 )
      Ey  (        0.00000        0.06400        0.00000 )
      Ez  (        0.00000        0.00000        0.06400 )

          Effective charges (d P / du) in cartesian axis 

           atom      1   H  
      Px  (        0.02305       -0.05754       -0.05754 )
      Py  (       -0.05754        0.02305       -0.05754 )
      Pz  (       -0.05754       -0.05754        0.02305 )
           atom      2   H  
      Px  (        0.02305       -0.05754        0.05754 )
      Py  (       -0.05754        0.02305        0.05754 )
      Pz  (        0.05754        0.05754        0.02305 )
           atom      3   H  
      Px  (        0.02305        0.05754        0.05754 )
      Py  (        0.05754        0.02305       -0.05754 )
      Pz  (        0.05754       -0.05754        0.02305 )
           atom      4   H  
      Px  (        0.02305        0.05754       -0.05754 )
      Py  (        0.05754        0.02305        0.05754 )
      Pz  (       -0.05754        0.05754        0.02305 )
           atom      5   C  
      Px  (       -0.09219        0.00000        0.00000 )
      Py  (        0.00000       -0.09219        0.00000 )
      Pz  (        0.00000        0.00000       -0.09219 )

     Diagonalizing the dynamical matrix

     q = (    0.000000000   0.000000000   0.000000000 ) 

 **************************************************************************
     freq (    1) =      -1.437883 [THz] =     -47.962626 [cm-1]
     freq (    2) =      -1.437840 [THz] =     -47.961190 [cm-1]
     freq (    3) =      -1.437590 [THz] =     -47.952830 [cm-1]
     freq (    4) =      -0.000834 [THz] =      -0.027813 [cm-1]
     freq (    5) =       0.000273 [THz] =       0.009103 [cm-1]
     freq (    6) =       0.000723 [THz] =       0.024106 [cm-1]
     freq (    7) =      36.776438 [THz] =    1226.729922 [cm-1]
     freq (    8) =      36.776461 [THz] =    1226.730698 [cm-1]
     freq (    9) =      36.776464 [THz] =    1226.730803 [cm-1]
     freq (   10) =      43.739948 [THz] =    1459.007609 [cm-1]
     freq (   11) =      43.739985 [THz] =    1459.008851 [cm-1]
     freq (   12) =      89.298808 [THz] =    2978.687620 [cm-1]
     freq (   13) =      93.004905 [THz] =    3102.309704 [cm-1]
     freq (   14) =      93.004907 [THz] =    3102.309762 [cm-1]
     freq (   15) =      93.004918 [THz] =    3102.310119 [cm-1]
 **************************************************************************

     Mode symmetry, T_d (-43m)  point group:

     freq (  1 -  1) =        -48.0  [cm-1]   -->   ?
     freq (  2 -  2) =        -48.0  [cm-1]   -->   ?
     freq (  3 -  3) =        -48.0  [cm-1]   -->   ?
     freq (  4 -  4) =         -0.0  [cm-1]   -->   ?
     freq (  5 -  5) =          0.0  [cm-1]   -->   ?
     freq (  6 -  6) =          0.0  [cm-1]   -->   ?
     freq (  7 -  9) =       1226.7  [cm-1]   --> T_2  G_15 P_4   I+R
     freq ( 10 - 11) =       1459.0  [cm-1]   --> E    G_12 P_3   R  
     freq ( 12 - 12) =       2978.7  [cm-1]   --> A_1  G_1  P_1   R  
     freq ( 13 - 15) =       3102.3  [cm-1]   --> T_2  G_15 P_4   I+R
 
     PHONON       :    42.77s CPU        45.86s WALL

     INITIALIZATION: 
     phq_setup    :      0.06s CPU      0.06s WALL (       1 calls)
     phq_init     :     17.76s CPU     18.10s WALL (       1 calls)
 
     phq_init     :     17.76s CPU     18.10s WALL (       1 calls)
     set_drhoc    :      9.38s CPU      9.39s WALL (       3 calls)
     init_vloc    :      0.02s CPU      0.02s WALL (       1 calls)
     init_us_1    :      0.27s CPU      0.28s WALL (       1 calls)
     newd         :      0.08s CPU      0.11s WALL (       1 calls)
     dvanqq       :      2.92s CPU      2.95s WALL (       1 calls)
     drho         :      2.43s CPU      2.71s WALL (       1 calls)
     cmpt_qdipol  :      0.00s CPU      0.00s WALL (       1 calls)
 
     DIELECTRIC CONSTANT AND EFFECTIVE CHARGES:
     solve_e      :      9.31s CPU     10.27s WALL (       1 calls)
     dielec       :      0.00s CPU      0.00s WALL (       1 calls)
     zstar_eu     :      3.17s CPU      3.24s WALL (       1 calls)
 
     DYNAMICAL MATRIX:
     dynmat0      :      6.80s CPU      6.80s WALL (       1 calls)
     phqscf       :     11.26s CPU     12.46s WALL (       1 calls)
     dynmatrix    :      0.00s CPU      0.00s WALL (       1 calls)
 
     phqscf       :     11.26s CPU     12.46s WALL (       1 calls)
     solve_linter :     11.13s CPU     12.28s WALL (       3 calls)
     drhodv       :      0.08s CPU      0.09s WALL (       3 calls)
     add_zstar_ue :      0.00s CPU      0.00s WALL (       3 calls)
     add_zstar_us :      0.04s CPU      0.05s WALL (       3 calls)
 
     dynmat0      :      6.80s CPU      6.80s WALL (       1 calls)
     dynmat_us    :      0.21s CPU      0.21s WALL (       1 calls)
     d2ionq       :      0.25s CPU      0.25s WALL (       1 calls)
     dynmatcc     :      6.34s CPU      6.34s WALL (       1 calls)
 
     dynmat_us    :      0.21s CPU      0.21s WALL (       1 calls)
     addusdynmat  :      0.00s CPU      0.00s WALL (       1 calls)
 
     phqscf       :     11.26s CPU     12.46s WALL (       1 calls)
     solve_linter :     11.13s CPU     12.28s WALL (       3 calls)
 
     solve_linter :     11.13s CPU     12.28s WALL (       3 calls)
     dvqpsi_us    :      0.15s CPU      0.15s WALL (      18 calls)
     ortho        :      0.03s CPU      0.03s WALL (      45 calls)
     cgsolve      :      4.89s CPU      4.91s WALL (      45 calls)
     incdrhoscf   :      0.32s CPU      0.32s WALL (      45 calls)
     addusddens   :      5.02s CPU      5.23s WALL (      36 calls)
     vpsifft      :      0.11s CPU      0.11s WALL (      18 calls)
     dv_of_drho   :      1.64s CPU      1.65s WALL (      45 calls)
     mix_pot      :      0.99s CPU      2.11s WALL (      28 calls)
     newdq        :      5.34s CPU      5.58s WALL (      28 calls)
     adddvscf     :      0.01s CPU      0.01s WALL (      36 calls)
     drhodvus     :      0.05s CPU      0.11s WALL (       3 calls)
 
     dvqpsi_us    :      0.15s CPU      0.15s WALL (      18 calls)
     dvqpsi_us_on :      0.01s CPU      0.01s WALL (      18 calls)
 
     cgsolve      :      4.89s CPU      4.91s WALL (      45 calls)
     ch_psi       :      4.74s CPU      4.78s WALL (     553 calls)
 
     ch_psi       :      4.74s CPU      4.78s WALL (     553 calls)
     last         :      0.41s CPU      0.42s WALL (     553 calls)
 
     add_vuspsi   :      0.13s CPU      0.13s WALL (     553 calls)
 
     incdrhoscf   :      0.32s CPU      0.32s WALL (      45 calls)
     addusdbec    :      0.02s CPU      0.02s WALL (      60 calls)
 
     drhodvus     :      0.05s CPU      0.11s WALL (       3 calls)
 
      General routines
     calbec       :      0.45s CPU      0.43s WALL (    1671 calls)
     fft          :      4.38s CPU      4.44s WALL (     462 calls)
     ffts         :      0.21s CPU      0.22s WALL (     181 calls)
     fftw         :      3.22s CPU      3.23s WALL (    4984 calls)
     davcio       :      0.15s CPU      1.24s WALL (     609 calls)
     write_rec    :      0.05s CPU      0.50s WALL (      31 calls)
 
 
     PHONON       :    42.77s CPU        45.86s WALL

 
   This run was terminated on:  10:41:59   3Aug2016            

=------------------------------------------------------------------------------=
   JOB DONE.
=------------------------------------------------------------------------------=
