
     Program PWSCF v.5.4.0 (svn rev. 12590M) starts on 21Jul2016 at 16: 0:26 

     This program is part of the open-source Quantum ESPRESSO suite
     for quantum simulation of materials; please cite
         "P. Giannozzi et al., J. Phys.:Condens. Matter 21 395502 (2009);
          URL http://www.quantum-espresso.org", 
     in publications or presentations arising from this work. More details at
     http://www.quantum-espresso.org/quote
 
           HOST :    x86_64-pc-linux-gnu
           ARCH :    x86_64
             CC :    icc
            CPP :    cpp
            F90 :    gfortran
            F77 :    gfortran
         DFLAGS :    -D__GFORTRAN -D__STD_F95 -D__DFTI -D__MPI -D__PARA -D__HDF5
      BLAS LIBS :    -lmkl_gf_lp64  -lmkl_sequential -lmkl_core
    LAPACK LIBS :    
       FFT LIBS :    
      MASS LIBS :    

     Parallel version (MPI), running on     2 processors
     R & G space division:  proc/nbgrp/npool/nimage =       2
     Waiting for input...
     Reading input from standard input

     Current dimensions of program PWSCF are:
     Max number of different atomic species (ntypx) = 10
     Max number of k-points (npk) =  40000
     Max angular momentum in pseudopotentials (lmaxx) =  3

     Subspace diagonalization in iterative solution of the eigenvalue problem:
     a serial algorithm will be used

 
     Parallelization info
     --------------------
     sticks:   dense  smooth     PW     G-vecs:    dense   smooth      PW
     Min         579      99     36                12910      915     205
     Max         580     100     37                12911      922     206
     Sum        1159     199     73                25821     1837     411
 


     bravais-lattice index     =            2
     lattice parameter (alat)  =       6.9000  a.u.
     unit-cell volume          =      82.1273 (a.u.)^3
     number of atoms/cell      =            1
     number of atomic types    =            1
     number of electrons       =        11.00
     number of Kohn-Sham states=           10
     kinetic-energy cutoff     =      30.0000  Ry
     charge density cutoff     =     700.0000  Ry
     convergence threshold     =      1.0E-09
     mixing beta               =       0.7000
     number of iterations used =            8  plain     mixing
     Exchange-correlation      =  SLA  PW   PBX  PBC ( 1  4  3  4 0 0)

     celldm(1)=   6.900000  celldm(2)=   0.000000  celldm(3)=   0.000000
     celldm(4)=   0.000000  celldm(5)=   0.000000  celldm(6)=   0.000000

     crystal axes: (cart. coord. in units of alat)
               a(1) = (  -0.500000   0.000000   0.500000 )  
               a(2) = (   0.000000   0.500000   0.500000 )  
               a(3) = (  -0.500000   0.500000   0.000000 )  

     reciprocal axes: (cart. coord. in units 2 pi/alat)
               b(1) = ( -1.000000 -1.000000  1.000000 )  
               b(2) = (  1.000000  1.000000  1.000000 )  
               b(3) = ( -1.000000  1.000000 -1.000000 )  


     PseudoPot. # 1 for Cu read from file:
     /home/nvarini/espresso_hdf5/espresso/pseudo/Cu.pbe-kjpaw.UPF
     MD5 check sum: 92cd914fcb04cfd737edc2091ad11b5d
     Pseudo is Projector augmented-wave + core cor, Zval = 11.0
     Generated using "atomic" code by A. Dal Corso (espresso distribution)
     Shape of augmentation charge: BESSEL
     Using radial grid of 1199 points,  6 beta functions with: 
                l(1) =   2
                l(2) =   2
                l(3) =   0
                l(4) =   0
                l(5) =   1
                l(6) =   1
     Q(r) pseudized with 0 coefficients 


     atomic species   valence    mass     pseudopotential
        Cu            11.00    63.54600     Cu( 1.00)

     48 Sym. Ops., with inversion, found



   Cartesian axes

     site n.     atom                  positions (alat units)
         1           Cu  tau(   1) = (   0.0000000   0.0000000   0.0000000  )

     number of k points=    10  Methfessel-Paxton smearing, width (Ry)=  0.0100
                       cart. coord. in units 2pi/alat
        k(    1) = (  -0.1250000   0.1250000   0.1250000), wk =   0.0625000
        k(    2) = (  -0.3750000   0.3750000  -0.1250000), wk =   0.1875000
        k(    3) = (   0.3750000  -0.3750000   0.6250000), wk =   0.1875000
        k(    4) = (   0.1250000  -0.1250000   0.3750000), wk =   0.1875000
        k(    5) = (  -0.1250000   0.6250000   0.1250000), wk =   0.1875000
        k(    6) = (   0.6250000  -0.1250000   0.8750000), wk =   0.3750000
        k(    7) = (   0.3750000   0.1250000   0.6250000), wk =   0.3750000
        k(    8) = (  -0.1250000  -0.8750000   0.1250000), wk =   0.1875000
        k(    9) = (  -0.3750000   0.3750000   0.3750000), wk =   0.0625000
        k(   10) = (   0.3750000  -0.3750000   1.1250000), wk =   0.1875000

     Dense  grid:    25821 G-vectors     FFT dimensions: (  45,  45,  45)

     Smooth grid:     1837 G-vectors     FFT dimensions: (  18,  18,  18)

     Largest allocated arrays     est. size (Mb)     dimensions
        Kohn-Sham Wavefunctions         0.02 Mb     (     114,   10)
        NL pseudopotentials             0.03 Mb     (     114,   18)
        Each V/rho on FFT grid          0.71 Mb     (   46575)
        Each G-vector array             0.10 Mb     (   12911)
        G-vector shells                 0.00 Mb     (     285)
     Largest temporary arrays     est. size (Mb)     dimensions
        Auxiliary wavefunctions         0.07 Mb     (     114,   40)
        Each subspace H/S matrix        0.02 Mb     (      40,   40)
        Each <psi_i|beta_j> matrix      0.00 Mb     (      18,   10)
        Arrays for rho mixing           5.69 Mb     (   46575,    8)

     Initial potential from superposition of free atoms

     starting charge   10.99972, renormalised to   11.00000
     Starting wfc are    9 randomized atomic wfcs +    1 random wfc
     Checking if some PAW data can be deallocated... 

     total cpu time spent up to now is        1.2 secs

     per-process dynamical memory:    19.7 Mb

     Self-consistent Calculation

     iteration #  1     ecut=    30.00 Ry     beta=0.70
     Davidson diagonalization with overlap
     ethr =  1.00E-02,  avg # of iterations =  4.7

     total cpu time spent up to now is        1.5 secs

     total energy              =    -213.10129990 Ry
     Harris-Foulkes estimate   =    -213.23330874 Ry
     estimated scf accuracy    <       0.12075234 Ry

     iteration #  2     ecut=    30.00 Ry     beta=0.70
     Davidson diagonalization with overlap
     ethr =  1.10E-03,  avg # of iterations =  3.0

     total cpu time spent up to now is        1.9 secs

     total energy              =    -213.10651629 Ry
     Harris-Foulkes estimate   =    -213.31625280 Ry
     estimated scf accuracy    <       0.16506487 Ry

     iteration #  3     ecut=    30.00 Ry     beta=0.70
     Davidson diagonalization with overlap
     ethr =  1.10E-03,  avg # of iterations =  2.9

     total cpu time spent up to now is        2.2 secs

     total energy              =    -213.19869872 Ry
     Harris-Foulkes estimate   =    -213.20223970 Ry
     estimated scf accuracy    <       0.00570940 Ry

     iteration #  4     ecut=    30.00 Ry     beta=0.70
     Davidson diagonalization with overlap
     ethr =  5.19E-05,  avg # of iterations =  1.0

     total cpu time spent up to now is        2.5 secs

     total energy              =    -213.19996986 Ry
     Harris-Foulkes estimate   =    -213.20003296 Ry
     estimated scf accuracy    <       0.00007966 Ry

     iteration #  5     ecut=    30.00 Ry     beta=0.70
     Davidson diagonalization with overlap
     ethr =  7.24E-07,  avg # of iterations =  3.0

     total cpu time spent up to now is        2.8 secs

     total energy              =    -213.20013214 Ry
     Harris-Foulkes estimate   =    -213.20014823 Ry
     estimated scf accuracy    <       0.00000209 Ry

     iteration #  6     ecut=    30.00 Ry     beta=0.70
     Davidson diagonalization with overlap
     ethr =  1.90E-08,  avg # of iterations =  3.0

     total cpu time spent up to now is        3.1 secs

     total energy              =    -213.20013624 Ry
     Harris-Foulkes estimate   =    -213.20013696 Ry
     estimated scf accuracy    <       0.00000286 Ry

     iteration #  7     ecut=    30.00 Ry     beta=0.70
     Davidson diagonalization with overlap
     ethr =  1.90E-08,  avg # of iterations =  1.0

     total cpu time spent up to now is        3.4 secs

     total energy              =    -213.20013611 Ry
     Harris-Foulkes estimate   =    -213.20013680 Ry
     estimated scf accuracy    <       0.00000049 Ry

     iteration #  8     ecut=    30.00 Ry     beta=0.70
     Davidson diagonalization with overlap
     ethr =  4.42E-09,  avg # of iterations =  1.0

     total cpu time spent up to now is        3.7 secs

     total energy              =    -213.20013597 Ry
     Harris-Foulkes estimate   =    -213.20013624 Ry
     estimated scf accuracy    <       0.00000036 Ry

     iteration #  9     ecut=    30.00 Ry     beta=0.70
     Davidson diagonalization with overlap
     ethr =  3.27E-09,  avg # of iterations =  1.0

     total cpu time spent up to now is        4.0 secs

     total energy              =    -213.20013607 Ry
     Harris-Foulkes estimate   =    -213.20013607 Ry
     estimated scf accuracy    <          7.0E-09 Ry

     iteration # 10     ecut=    30.00 Ry     beta=0.70
     Davidson diagonalization with overlap
     ethr =  6.37E-11,  avg # of iterations =  3.0

     total cpu time spent up to now is        4.3 secs

     End of self-consistent calculation

          k =-0.1250 0.1250 0.1250 (   232 PWs)   bands (ev):

     6.2863  11.9340  12.1264  12.1264  12.7976  12.7976  34.3367  39.1703
    39.3026  39.3026

          k =-0.3750 0.3750-0.1250 (   223 PWs)   bands (ev):

     8.8898  11.6661  12.0804  12.3068  12.7745  13.4613  26.1039  31.5675
    39.0864  39.3213

          k = 0.3750-0.3750 0.6250 (   233 PWs)   bands (ev):

    10.3026  11.8154  12.1838  12.3551  13.3877  15.0806  19.3766  32.7507
    34.3624  36.2410

          k = 0.1250-0.1250 0.3750 (   228 PWs)   bands (ev):

     7.6807  11.6361  12.2390  12.3466  12.7123  13.0209  30.2044  34.6733
    36.6897  38.7710

          k =-0.1250 0.6250 0.1250 (   226 PWs)   bands (ev):

     9.7852  11.1806  12.2110  12.7623  13.3044  13.5634  27.0522  30.4200
    30.9706  35.1861

          k = 0.6250-0.1250 0.8750 (   227 PWs)   bands (ev):

    10.9354  11.1872  11.9372  12.8527  13.4027  18.2982  21.3887  24.8574
    27.0721  39.0243

          k = 0.3750 0.1250 0.6250 (   230 PWs)   bands (ev):

    10.4599  11.4774  11.7774  12.5621  13.1552  14.8063  23.0590  28.5936
    31.5997  39.3530

          k =-0.1250-0.8750 0.1250 (   228 PWs)   bands (ev):

    10.4358  10.8616  12.9027  13.1647  13.4573  16.2551  23.8403  25.2563
    28.8556  34.6223

          k =-0.3750 0.3750 0.3750 (   232 PWs)   bands (ev):

     9.5750  12.0705  12.0705  12.4029  13.2209  13.2209  21.8657  37.2262
    37.2262  37.4306

          k = 0.3750-0.3750 1.1250 (   230 PWs)   bands (ev):

    10.9172  11.4095  11.8901  12.5567  13.2000  17.0794  20.2250  26.0860
    32.7242  35.9660

     the Fermi energy is    14.8686 ev

!    total energy              =    -213.20013608 Ry
     Harris-Foulkes estimate   =    -213.20013608 Ry
     estimated scf accuracy    <          3.8E-11 Ry

     total all-electron energy =     -3309.957154 Ry

     The total energy is the sum of the following terms:

     one-electron contribution =     -31.86168266 Ry
     hartree contribution      =      15.00697771 Ry
     xc contribution           =     -19.53714264 Ry
     ewald contribution        =     -80.40120449 Ry
     one-center paw contrib.   =     -96.40692443 Ry
     smearing contrib. (-TS)   =      -0.00015957 Ry

     convergence has been achieved in  10 iterations

     Writing output data file copper.save
 
     init_run     :      0.76s CPU      0.78s WALL (       1 calls)
     electrons    :      2.88s CPU      3.13s WALL (       1 calls)

     Called by init_run:
     wfcinit      :      0.02s CPU      0.02s WALL (       1 calls)
     potinit      :      0.17s CPU      0.17s WALL (       1 calls)

     Called by electrons:
     c_bands      :      0.51s CPU      0.53s WALL (      10 calls)
     sum_band     :      0.52s CPU      0.61s WALL (      10 calls)
     v_of_rho     :      0.33s CPU      0.33s WALL (      11 calls)
     newd         :      0.24s CPU      0.34s WALL (      11 calls)
     PAW_pot      :      1.40s CPU      1.45s WALL (      11 calls)
     mix_rho      :      0.02s CPU      0.02s WALL (      10 calls)

     Called by c_bands:
     init_us_2    :      0.01s CPU      0.01s WALL (     210 calls)
     cegterg      :      0.48s CPU      0.50s WALL (     100 calls)

     Called by sum_band:
     sum_band:bec :      0.00s CPU      0.00s WALL (     100 calls)
     addusdens    :      0.36s CPU      0.44s WALL (      10 calls)

     Called by *egterg:
     h_psi        :      0.36s CPU      0.38s WALL (     346 calls)
     s_psi        :      0.01s CPU      0.01s WALL (     346 calls)
     g_psi        :      0.00s CPU      0.00s WALL (     236 calls)
     cdiaghg      :      0.09s CPU      0.08s WALL (     336 calls)

     Called by h_psi:
     add_vuspsi   :      0.01s CPU      0.01s WALL (     346 calls)

     General routines
     calbec       :      0.02s CPU      0.02s WALL (     446 calls)
     fft          :      0.15s CPU      0.16s WALL (     172 calls)
     ffts         :      0.00s CPU      0.00s WALL (      21 calls)
     fftw         :      0.24s CPU      0.27s WALL (    6450 calls)
     interpolate  :      0.02s CPU      0.02s WALL (      21 calls)
 
     Parallel routines
     fft_scatter  :      0.12s CPU      0.13s WALL (    6643 calls)
 
     PWSCF        :     4.13s CPU         4.42s WALL

 
   This run was terminated on:  16: 0:30  21Jul2016            

=------------------------------------------------------------------------------=
   JOB DONE.
=------------------------------------------------------------------------------=
