
     Program PHONON v.6.beta (svn rev. 12834M) starts on 25Aug2016 at 11: 6:33 

     This program is part of the open-source Quantum ESPRESSO suite
     for quantum simulation of materials; please cite
         "P. Giannozzi et al., J. Phys.:Condens. Matter 21 395502 (2009);
          URL http://www.quantum-espresso.org", 
     in publications or presentations arising from this work. More details at
     http://www.quantum-espresso.org/quote
 
           HOST :    x86_64-pc-linux-gnu
           ARCH :    x86_64
             CC :    icc
            CPP :    cpp
            F90 :    ifort
            F77 :    ifort
         DFLAGS :    -D__INTEL -D__FFTW -D__MPI -D__PARA -D__HDF5
      BLAS LIBS :    -lmkl_intel_lp64  -lmkl_sequential -lmkl_core
    LAPACK LIBS :    
       FFT LIBS :    
      MASS LIBS :    

     Parallel version (MPI), running on     2 processors
     R & G space division:  proc/nbgrp/npool/nimage =       2

     Reading data from directory:
     /home/nvarini/espresso_hdf5/espresso/tempdir/ch4.save

   Info: using nr1, nr2, nr3 values from input

   Info: using nr1, nr2, nr3 values from input

     IMPORTANT: XC functional enforced from input :
     Exchange-correlation      =  SLA  PZ   NOGX NOGC ( 1  1  0  0 0 0)
     Any further DFT definition will be discarded
     Please, verify this is what you really want

               file H.pz-vbc.UPF: wavefunction(s)  1S renormalized
 
     Parallelization info
     --------------------
     sticks:   dense  smooth     PW     G-vecs:    dense   smooth      PW
     Min         684     684    174                19200    19200    2400
     Max         685     685    175                19201    19201    2401
     Sum        1369    1369    349                38401    38401    4801
 

     Calculation of q =    0.0000000   0.0000000   0.0000000

                                                                                

     bravais-lattice index     =            1
     lattice parameter (alat)  =      10.3935  a.u.
     unit-cell volume          =    1122.7530 (a.u.)^3
     number of atoms/cell      =            5
     number of atomic types    =            2
     kinetic-energy cut-off    =      40.0000  Ry
     charge density cut-off    =     160.0000  Ry
     convergence threshold     =      1.0E-14
     beta                      =       0.7000
     number of iterations used =            4
     Exchange-correlation      =  SLA  PZ   NOGX NOGC ( 1  1  0  0 0 0)


     celldm(1)=   10.39349  celldm(2)=    0.00000  celldm(3)=    0.00000
     celldm(4)=    0.00000  celldm(5)=    0.00000  celldm(6)=    0.00000

     crystal axes: (cart. coord. in units of alat)
               a(1) = (  1.0000  0.0000  0.0000 )  
               a(2) = (  0.0000  1.0000  0.0000 )  
               a(3) = (  0.0000  0.0000  1.0000 )  

     reciprocal axes: (cart. coord. in units 2 pi/alat)
               b(1) = (  1.0000  0.0000  0.0000 )  
               b(2) = (  0.0000  1.0000  0.0000 )  
               b(3) = (  0.0000  0.0000  1.0000 )  


     Atoms inside the unit cell: 

     Cartesian axes

     site n.  atom      mass           positions (alat units)
        1     C   12.0107   tau(    1) = (    0.00000    0.00000    0.00000  )
        2     H    1.0079   tau(    2) = (    0.11520    0.11520    0.11520  )
        3     H    1.0079   tau(    3) = (    0.11520   -0.11520   -0.11520  )
        4     H    1.0079   tau(    4) = (   -0.11520   -0.11520    0.11520  )
        5     H    1.0079   tau(    5) = (   -0.11520    0.11520   -0.11520  )

     Computing dynamical matrix for 
                    q = (   0.0000000   0.0000000   0.0000000 )
 
     25 Sym.Ops. (with q -> -q+G )


     G cutoff =  437.8074  (  19200 G-vectors)     FFT grid: ( 45, 45, 45)
     number of k points=     1
                       cart. coord. in units 2pi/alat
        k(    1) = (   0.0000000   0.0000000   0.0000000), wk =   2.0000000

     PseudoPot. # 1 for C  read from file:
     /home/nvarini/espresso_hdf5/espresso/pseudo/C.pz-vbc.UPF
     MD5 check sum: ab53dd623bfeb79c5a7b057bc96eae20
     Pseudo is Norm-conserving, Zval =  4.0
     Generated by new atomic code, or converted to UPF format
     Using radial grid of  269 points,  1 beta functions with: 
                l(1) =   0

     PseudoPot. # 2 for H  read from file:
     /home/nvarini/espresso_hdf5/espresso/pseudo/H.pz-vbc.UPF
     MD5 check sum: 90becb985b714f09656c73597998d266
     Pseudo is Norm-conserving, Zval =  1.0
     Generated by new atomic code, or converted to UPF format
     Using radial grid of  131 points,  0 beta functions with: 

     Mode symmetry, T_d (-43m)  point group:

     k=gamma and q=gamma tricks are used


     Electric field:
     Dielectric constant and polarizability
     Born effective charges as d Force / d E
     Frequency Dependent Polarizability at (Ry) 
        1.5000i   0.0000i


     Atomic displacements:
     There are  15 irreducible representations

     Representation     1      1 modes -A  To be done

     Representation     2      1 modes -A  To be done

     Representation     3      1 modes -A  To be done

     Representation     4      1 modes -A  To be done

     Representation     5      1 modes -A  To be done

     Representation     6      1 modes -A  To be done

     Representation     7      1 modes - Calculated using symmetry

     Representation     8      1 modes - Calculated using symmetry

     Representation     9      1 modes - Calculated using symmetry

     Representation    10      1 modes - Calculated using symmetry

     Representation    11      1 modes - Calculated using symmetry

     Representation    12      1 modes - Calculated using symmetry

     Representation    13      1 modes - Calculated using symmetry

     Representation    14      1 modes - Calculated using symmetry

     Representation    15      1 modes - Calculated using symmetry


     PHONON       :     0.45s CPU         0.46s WALL


     Frequency Dependent Polarizability Calculation


      iter #   1 total cpu time :     1.5 secs   av.it.:   5.7
      thresh= 1.000E-02 alpha_mix =  0.700 |ddv_scf|^2 =  4.771E-09

      iter #   2 total cpu time :     3.2 secs   av.it.:  16.0
      thresh= 6.907E-06 alpha_mix =  0.700 |ddv_scf|^2 =  4.628E-11

      iter #   3 total cpu time :     4.8 secs   av.it.:  16.0
      thresh= 6.803E-07 alpha_mix =  0.700 |ddv_scf|^2 =  1.586E-12

      iter #   4 total cpu time :     6.4 secs   av.it.:  16.0
      thresh= 1.259E-07 alpha_mix =  0.700 |ddv_scf|^2 =  9.110E-15

          Polarizability in cartesian axis at frequency  1.50

          (       6.904821367       0.000000000       0.000000000 )
          (       0.000000000       6.904821367       0.000000000 )
          (       0.000000000       0.000000000       6.904821367 )


                               Frequency    1.50000i Ry


                               Cartesian axis 

     Polarizability (a.u.)^3                    Polarizability (A^3)
      6.90      0.00      0.00             1.0232        0.0000        0.0000
      0.00      6.90      0.00             0.0000        1.0232        0.0000
      0.00      0.00      6.90             0.0000        0.0000        1.0232

      iter #   1 total cpu time :     7.0 secs   av.it.:   5.3
      thresh= 1.000E-02 alpha_mix =  0.700 |ddv_scf|^2 =  3.667E-08

      iter #   2 total cpu time :     8.5 secs   av.it.:  15.0
      thresh= 1.915E-05 alpha_mix =  0.700 |ddv_scf|^2 =  3.797E-09

      iter #   3 total cpu time :     9.9 secs   av.it.:  14.0
      thresh= 6.162E-06 alpha_mix =  0.700 |ddv_scf|^2 =  2.553E-10

      iter #   4 total cpu time :    11.2 secs   av.it.:  12.0
      thresh= 1.598E-06 alpha_mix =  0.700 |ddv_scf|^2 =  3.016E-13

      iter #   5 total cpu time :    12.8 secs   av.it.:  16.0
      thresh= 5.492E-08 alpha_mix =  0.700 |ddv_scf|^2 =  7.979E-15

          Polarizability in cartesian axis at frequency  0.00

          (      20.725957682       0.000000000       0.000000000 )
          (       0.000000000      20.725957682       0.000000000 )
          (       0.000000000       0.000000000      20.725957682 )


                               Frequency    0.00000i Ry


                               Cartesian axis 

     Polarizability (a.u.)^3                    Polarizability (A^3)
     20.73      0.00      0.00             3.0713        0.0000        0.0000
      0.00     20.73      0.00             0.0000        3.0713        0.0000
      0.00      0.00     20.73             0.0000        0.0000        3.0713

     End of Frequency Dependent Polarizability Calculation

     Electric Fields Calculation

      iter #   1 total cpu time :    12.9 secs   av.it.:   6.0
      thresh= 1.000E-02 alpha_mix =  0.700 |ddv_scf|^2 =  3.600E-08

      iter #   2 total cpu time :    13.2 secs   av.it.:  11.0
      thresh= 1.897E-05 alpha_mix =  0.700 |ddv_scf|^2 =  3.381E-09

      iter #   3 total cpu time :    13.5 secs   av.it.:  10.0
      thresh= 5.815E-06 alpha_mix =  0.700 |ddv_scf|^2 =  2.302E-10

      iter #   4 total cpu time :    13.7 secs   av.it.:  10.0
      thresh= 1.517E-06 alpha_mix =  0.700 |ddv_scf|^2 =  4.949E-13

      iter #   5 total cpu time :    14.0 secs   av.it.:  11.0
      thresh= 7.035E-08 alpha_mix =  0.700 |ddv_scf|^2 =  1.097E-14

      iter #   6 total cpu time :    14.2 secs   av.it.:  10.7
      thresh= 1.047E-08 alpha_mix =  0.700 |ddv_scf|^2 =  2.152E-15

     End of electric fields calculation

          Dielectric constant in cartesian axis 

          (       1.251437016       0.000000000       0.000000000 )
          (       0.000000000       1.251437016       0.000000000 )
          (       0.000000000       0.000000000       1.251437016 )

     Polarizability (a.u.)^3                    Polarizability (A^3)
     20.73      0.00      0.00             3.0715        0.0000        0.0000
      0.00     20.73      0.00             0.0000        3.0715        0.0000
      0.00      0.00     20.73             0.0000        0.0000        3.0715

          Effective charges (d Force / dE) in cartesian axis

           atom      1   C  
      Ex  (       -0.13077        0.00000        0.00000 )
      Ey  (        0.00000       -0.13077        0.00000 )
      Ez  (        0.00000        0.00000       -0.13077 )
           atom      2   H  
      Ex  (       -0.01706       -0.08482       -0.08482 )
      Ey  (       -0.08482       -0.01706       -0.08482 )
      Ez  (       -0.08482       -0.08482       -0.01706 )
           atom      3   H  
      Ex  (       -0.01706        0.08482        0.08482 )
      Ey  (        0.08482       -0.01706       -0.08482 )
      Ez  (        0.08482       -0.08482       -0.01706 )
           atom      4   H  
      Ex  (       -0.01706       -0.08482        0.08482 )
      Ey  (       -0.08482       -0.01706        0.08482 )
      Ez  (        0.08482        0.08482       -0.01706 )
           atom      5   H  
      Ex  (       -0.01706        0.08482       -0.08482 )
      Ey  (        0.08482       -0.01706        0.08482 )
      Ez  (       -0.08482        0.08482       -0.01706 )
 
     PHONON       :    13.97s CPU        14.33s WALL

     INITIALIZATION: 
     phq_setup    :      0.02s CPU      0.02s WALL (       1 calls)
     phq_init     :      0.07s CPU      0.07s WALL (       1 calls)
 
     phq_init     :      0.07s CPU      0.07s WALL (       1 calls)
     init_vloc    :      0.00s CPU      0.00s WALL (       1 calls)
     init_us_1    :      0.00s CPU      0.00s WALL (       1 calls)
 
     DIELECTRIC CONSTANT AND EFFECTIVE CHARGES:
     solve_e      :     13.41s CPU     13.76s WALL (       3 calls)
     dielec       :      0.00s CPU      0.00s WALL (       1 calls)
     zstar_eu     :      0.10s CPU      0.10s WALL (       1 calls)
 
 
 
 
     dvqpsi_us    :      0.10s CPU      0.10s WALL (      15 calls)
     ortho        :      0.00s CPU      0.00s WALL (      21 calls)
     cgsolve      :      1.38s CPU      1.40s WALL (      21 calls)
     incdrhoscf   :      0.26s CPU      0.27s WALL (      45 calls)
     dv_of_drho   :      0.14s CPU      0.15s WALL (      45 calls)
     mix_pot      :      0.12s CPU      0.25s WALL (      15 calls)
 
     dvqpsi_us    :      0.10s CPU      0.10s WALL (      15 calls)
     dvqpsi_us_on :      0.00s CPU      0.00s WALL (      15 calls)
 
     cgsolve      :      1.38s CPU      1.40s WALL (      21 calls)
     ch_psi       :     10.59s CPU     10.75s WALL (    7005 calls)
 
     ch_psi       :     10.59s CPU     10.75s WALL (    7005 calls)
     last         :      0.54s CPU      0.50s WALL (    7005 calls)
 
     add_vuspsi   :      0.05s CPU      0.10s WALL (    7005 calls)
 
     incdrhoscf   :      0.26s CPU      0.27s WALL (      45 calls)
 
 
      General routines
     calbec       :      0.17s CPU      0.22s WALL (   14044 calls)
     fft          :      0.13s CPU      0.13s WALL (     138 calls)
     ffts         :      0.01s CPU      0.01s WALL (      15 calls)
     fftw         :      9.08s CPU      9.14s WALL (   16224 calls)
     davcio       :      0.04s CPU      0.13s WALL (     287 calls)
     write_rec    :      0.00s CPU      0.02s WALL (       6 calls)
 
 
     PHONON       :    13.97s CPU        14.33s WALL

 
   This run was terminated on:  11: 6:47  25Aug2016            

=------------------------------------------------------------------------------=
   JOB DONE.
=------------------------------------------------------------------------------=
