
     Program PHONON v.5.4.0 (svn rev. 12590M) starts on 21Jul2016 at 16: 1:46 

     This program is part of the open-source Quantum ESPRESSO suite
     for quantum simulation of materials; please cite
         "P. Giannozzi et al., J. Phys.:Condens. Matter 21 395502 (2009);
          URL http://www.quantum-espresso.org", 
     in publications or presentations arising from this work. More details at
     http://www.quantum-espresso.org/quote
 
           HOST :    x86_64-pc-linux-gnu
           ARCH :    x86_64
             CC :    icc
            CPP :    cpp
            F90 :    gfortran
            F77 :    gfortran
         DFLAGS :    -D__GFORTRAN -D__STD_F95 -D__DFTI -D__MPI -D__PARA -D__HDF5
      BLAS LIBS :    -lmkl_gf_lp64  -lmkl_sequential -lmkl_core
    LAPACK LIBS :    
       FFT LIBS :    
      MASS LIBS :    

     Parallel version (MPI), running on     2 processors
     R & G space division:  proc/nbgrp/npool/nimage =       2

     Reading data from directory:
     /home/nvarini/espresso_hdf5/espresso/tempdir/ch4.save

   Info: using nr1, nr2, nr3 values from input

   Info: using nr1, nr2, nr3 values from input

     IMPORTANT: XC functional enforced from input :
     Exchange-correlation      =  SLA  PZ   NOGX NOGC ( 1  1  0  0 0 0)
     Any further DFT definition will be discarded
     Please, verify this is what you really want

               file H.pz-vbc.UPF: wavefunction(s)  1S renormalized
 
     Parallelization info
     --------------------
     sticks:   dense  smooth     PW     G-vecs:    dense   smooth      PW
     Min         684     684    174                19200    19200    2400
     Max         685     685    175                19201    19201    2401
     Sum        1369    1369    349                38401    38401    4801
 

     Calculation of q =    0.0000000   0.0000000   0.0000000

                                                                                

     bravais-lattice index     =            1
     lattice parameter (alat)  =      10.3935  a.u.
     unit-cell volume          =    1122.7530 (a.u.)^3
     number of atoms/cell      =            5
     number of atomic types    =            2
     kinetic-energy cut-off    =      40.0000  Ry
     charge density cut-off    =     160.0000  Ry
     convergence threshold     =      1.0E-14
     beta                      =       0.7000
     number of iterations used =            4
     Exchange-correlation      =  SLA  PZ   NOGX NOGC ( 1  1  0  0 0 0)


     celldm(1)=   10.39349  celldm(2)=    0.00000  celldm(3)=    0.00000
     celldm(4)=    0.00000  celldm(5)=    0.00000  celldm(6)=    0.00000

     crystal axes: (cart. coord. in units of alat)
               a(1) = (  1.0000  0.0000  0.0000 )  
               a(2) = (  0.0000  1.0000  0.0000 )  
               a(3) = (  0.0000  0.0000  1.0000 )  

     reciprocal axes: (cart. coord. in units 2 pi/alat)
               b(1) = (  1.0000  0.0000  0.0000 )  
               b(2) = (  0.0000  1.0000  0.0000 )  
               b(3) = (  0.0000  0.0000  1.0000 )  


     Atoms inside the unit cell: 

     Cartesian axes

     site n.  atom      mass           positions (alat units)
        1     C   12.0107   tau(    1) = (    0.00000    0.00000    0.00000  )
        2     H    1.0079   tau(    2) = (    0.11520    0.11520    0.11520  )
        3     H    1.0079   tau(    3) = (    0.11520   -0.11520   -0.11520  )
        4     H    1.0079   tau(    4) = (   -0.11520   -0.11520    0.11520  )
        5     H    1.0079   tau(    5) = (   -0.11520    0.11520   -0.11520  )

     Computing dynamical matrix for 
                    q = (   0.0000000   0.0000000   0.0000000 )
 
     25 Sym.Ops. (with q -> -q+G )


     G cutoff =  437.8074  (  19200 G-vectors)     FFT grid: ( 45, 45, 45)
     number of k points=     1
                       cart. coord. in units 2pi/alat
        k(    1) = (   0.0000000   0.0000000   0.0000000), wk =   2.0000000

     PseudoPot. # 1 for C  read from file:
     /home/nvarini/espresso_hdf5/espresso/pseudo/C.pz-vbc.UPF
     MD5 check sum: ab53dd623bfeb79c5a7b057bc96eae20
     Pseudo is Norm-conserving, Zval =  4.0
     Generated by new atomic code, or converted to UPF format
     Using radial grid of  269 points,  1 beta functions with: 
                l(1) =   0

     PseudoPot. # 2 for H  read from file:
     /home/nvarini/espresso_hdf5/espresso/pseudo/H.pz-vbc.UPF
     MD5 check sum: 90becb985b714f09656c73597998d266
     Pseudo is Norm-conserving, Zval =  1.0
     Generated by new atomic code, or converted to UPF format
     Using radial grid of  131 points,  0 beta functions with: 

     Mode symmetry, T_d (-43m)  point group:

     k=gamma and q=gamma tricks are used


     Electric field:
     Dielectric constant and polarizability
     Born effective charges as d Force / d E
     Frequency Dependent Polarizability at (Ry) 
        1.5000i   0.0000i


     Atomic displacements:
     There are  15 irreducible representations

     Representation     1      1 modes -A  To be done

     Representation     2      1 modes -A  To be done

     Representation     3      1 modes -A  To be done

     Representation     4      1 modes -A  To be done

     Representation     5      1 modes -A  To be done

     Representation     6      1 modes -A  To be done

     Representation     7      1 modes - Calculated using symmetry

     Representation     8      1 modes - Calculated using symmetry

     Representation     9      1 modes - Calculated using symmetry

     Representation    10      1 modes - Calculated using symmetry

     Representation    11      1 modes - Calculated using symmetry

     Representation    12      1 modes - Calculated using symmetry

     Representation    13      1 modes - Calculated using symmetry

     Representation    14      1 modes - Calculated using symmetry

     Representation    15      1 modes - Calculated using symmetry


     PHONON       :     0.41s CPU         0.45s WALL


     Frequency Dependent Polarizability Calculation


      iter #   1 total cpu time :     1.5 secs   av.it.:   5.0
      thresh= 1.000E-02 alpha_mix =  0.700 |ddv_scf|^2 =  4.753E-09

      iter #   2 total cpu time :     3.2 secs   av.it.:  16.0
      thresh= 6.894E-06 alpha_mix =  0.700 |ddv_scf|^2 =  4.813E-11

      iter #   3 total cpu time :     4.8 secs   av.it.:  16.0
      thresh= 6.938E-07 alpha_mix =  0.700 |ddv_scf|^2 =  1.624E-12

      iter #   4 total cpu time :     6.4 secs   av.it.:  15.7
      thresh= 1.274E-07 alpha_mix =  0.700 |ddv_scf|^2 =  9.468E-15

          Polarizability in cartesian axis at frequency  1.50

          (       6.904956733       0.000000000       0.000000000 )
          (       0.000000000       6.904956733       0.000000000 )
          (       0.000000000       0.000000000       6.904956733 )


                               Frequency    1.50000i Ry


                               Cartesian axis 

     Polarizability (a.u.)^3                    Polarizability (A^3)
      6.90      0.00      0.00             1.0232        0.0000        0.0000
      0.00      6.90      0.00             0.0000        1.0232        0.0000
      0.00      0.00      6.90             0.0000        0.0000        1.0232

      iter #   1 total cpu time :     7.0 secs   av.it.:   5.0
      thresh= 1.000E-02 alpha_mix =  0.700 |ddv_scf|^2 =  3.661E-08

      iter #   2 total cpu time :     8.5 secs   av.it.:  14.0
      thresh= 1.913E-05 alpha_mix =  0.700 |ddv_scf|^2 =  3.833E-09

      iter #   3 total cpu time :     9.9 secs   av.it.:  14.0
      thresh= 6.191E-06 alpha_mix =  0.700 |ddv_scf|^2 =  2.614E-10

      iter #   4 total cpu time :    11.1 secs   av.it.:  12.0
      thresh= 1.617E-06 alpha_mix =  0.700 |ddv_scf|^2 =  2.946E-13

      iter #   5 total cpu time :    12.7 secs   av.it.:  16.0
      thresh= 5.428E-08 alpha_mix =  0.700 |ddv_scf|^2 =  9.115E-15

          Polarizability in cartesian axis at frequency  0.00

          (      20.725905606       0.000000000       0.000000000 )
          (       0.000000000      20.725905606       0.000000000 )
          (       0.000000000       0.000000000      20.725905606 )


                               Frequency    0.00000i Ry


                               Cartesian axis 

     Polarizability (a.u.)^3                    Polarizability (A^3)
     20.73      0.00      0.00             3.0713        0.0000        0.0000
      0.00     20.73      0.00             0.0000        3.0713        0.0000
      0.00      0.00     20.73             0.0000        0.0000        3.0713

     End of Frequency Dependent Polarizability Calculation

     Electric Fields Calculation

      iter #   1 total cpu time :    12.9 secs   av.it.:   6.0
      thresh= 1.000E-02 alpha_mix =  0.700 |ddv_scf|^2 =  3.606E-08

      iter #   2 total cpu time :    13.1 secs   av.it.:  11.0
      thresh= 1.899E-05 alpha_mix =  0.700 |ddv_scf|^2 =  3.404E-09

      iter #   3 total cpu time :    13.4 secs   av.it.:  10.0
      thresh= 5.834E-06 alpha_mix =  0.700 |ddv_scf|^2 =  2.313E-10

      iter #   4 total cpu time :    13.6 secs   av.it.:   9.7
      thresh= 1.521E-06 alpha_mix =  0.700 |ddv_scf|^2 =  4.743E-13

      iter #   5 total cpu time :    13.9 secs   av.it.:  11.0
      thresh= 6.887E-08 alpha_mix =  0.700 |ddv_scf|^2 =  7.227E-15

     End of electric fields calculation

          Dielectric constant in cartesian axis 

          (       1.251423387       0.000000000       0.000000000 )
          (       0.000000000       1.251423387       0.000000000 )
          (       0.000000000       0.000000000       1.251423387 )

     Polarizability (a.u.)^3                    Polarizability (A^3)
     20.73      0.00      0.00             3.0714        0.0000        0.0000
      0.00     20.73      0.00             0.0000        3.0714        0.0000
      0.00      0.00     20.73             0.0000        0.0000        3.0714

          Effective charges (d Force / dE) in cartesian axis

           atom      1   C  
      Ex  (       -0.13059        0.00000        0.00000 )
      Ey  (        0.00000       -0.13059        0.00000 )
      Ez  (        0.00000        0.00000       -0.13059 )
           atom      2   H  
      Ex  (       -0.01691       -0.08482       -0.08482 )
      Ey  (       -0.08482       -0.01691       -0.08482 )
      Ez  (       -0.08482       -0.08482       -0.01691 )
           atom      3   H  
      Ex  (       -0.01691        0.08482        0.08482 )
      Ey  (        0.08482       -0.01691       -0.08482 )
      Ez  (        0.08482       -0.08482       -0.01691 )
           atom      4   H  
      Ex  (       -0.01691       -0.08482        0.08482 )
      Ey  (       -0.08482       -0.01691        0.08482 )
      Ez  (        0.08482        0.08482       -0.01691 )
           atom      5   H  
      Ex  (       -0.01691        0.08482       -0.08482 )
      Ey  (        0.08482       -0.01691        0.08482 )
      Ez  (       -0.08482        0.08482       -0.01691 )
 
     PHONON       :    13.67s CPU        14.01s WALL

     INITIALIZATION: 
     phq_setup    :      0.01s CPU      0.02s WALL (       1 calls)
     phq_init     :      0.07s CPU      0.07s WALL (       1 calls)
 
     phq_init     :      0.07s CPU      0.07s WALL (       1 calls)
     init_vloc    :      0.00s CPU      0.00s WALL (       1 calls)
     init_us_1    :      0.00s CPU      0.00s WALL (       1 calls)
 
     DIELECTRIC CONSTANT AND EFFECTIVE CHARGES:
     solve_e      :     13.14s CPU     13.44s WALL (       3 calls)
     dielec       :      0.00s CPU      0.00s WALL (       1 calls)
     zstar_eu     :      0.10s CPU      0.10s WALL (       1 calls)
 
 
 
 
     dvqpsi_us    :      0.10s CPU      0.10s WALL (      15 calls)
     ortho        :      0.00s CPU      0.00s WALL (      18 calls)
     cgsolve      :      1.17s CPU      1.21s WALL (      18 calls)
     incdrhoscf   :      0.24s CPU      0.26s WALL (      42 calls)
     dv_of_drho   :      0.16s CPU      0.16s WALL (      42 calls)
     mix_pot      :      0.10s CPU      0.22s WALL (      14 calls)
 
     dvqpsi_us    :      0.10s CPU      0.10s WALL (      15 calls)
     dvqpsi_us_on :      0.00s CPU      0.00s WALL (      15 calls)
 
     cgsolve      :      1.17s CPU      1.21s WALL (      18 calls)
     ch_psi       :     10.31s CPU     10.44s WALL (    6855 calls)
 
     ch_psi       :     10.31s CPU     10.44s WALL (    6855 calls)
     last         :      0.57s CPU      0.51s WALL (    6855 calls)
 
     add_vuspsi   :      0.06s CPU      0.09s WALL (    6855 calls)
 
     incdrhoscf   :      0.24s CPU      0.26s WALL (      42 calls)
 
 
      General routines
     calbec       :      0.20s CPU      0.22s WALL (   13744 calls)
     fft          :      0.15s CPU      0.15s WALL (     129 calls)
     ffts         :      0.02s CPU      0.02s WALL (      15 calls)
     fftw         :      8.82s CPU      8.84s WALL (   15666 calls)
     davcio       :      0.04s CPU      0.12s WALL (     266 calls)
     write_rec    :      0.00s CPU      0.02s WALL (       5 calls)
 
 
     PHONON       :    13.67s CPU        14.01s WALL

 
   This run was terminated on:  16: 2: 0  21Jul2016            

=------------------------------------------------------------------------------=
   JOB DONE.
=------------------------------------------------------------------------------=
