
     Program PROJWFC v.5.3.0 (svn rev. 12188M) starts on  4Mar2016 at 11: 6:36 

     This program is part of the open-source Quantum ESPRESSO suite
     for quantum simulation of materials; please cite
         "P. Giannozzi et al., J. Phys.:Condens. Matter 21 395502 (2009);
          URL http://www.quantum-espresso.org", 
     in publications or presentations arising from this work. More details at
     http://www.quantum-espresso.org/quote

     Parallel version (MPI), running on     2 processors
     R & G space division:  proc/nbgrp/npool/nimage =       2

     Reading data from directory:
     ./tempdir/silicon.save

   Info: using nr1, nr2, nr3 values from input

   Info: using nr1, nr2, nr3 values from input

     IMPORTANT: XC functional enforced from input :
     Exchange-correlation      =  SLA  PZ   NOGX NOGC ( 1  1  0  0 0 0)
     Any further DFT definition will be discarded
     Please, verify this is what you really want

 
     Parallelization info
     --------------------
     sticks:   dense  smooth     PW     G-vecs:    dense   smooth      PW
     Min         126     126     42                 1365     1365     264
     Max         127     127     43                 1368     1368     267
     Sum         253     253     85                 2733     2733     531
 

     Gaussian broadening (default values): ngauss,degauss=   0    0.000735


     Calling projwave .... 

     Atomic states used for projection
     (read from pseudopotential files):

     state #   1: atom   1 (Si ), wfc  1 (l=0 m= 1)
     state #   2: atom   1 (Si ), wfc  2 (l=1 m= 1)
     state #   3: atom   1 (Si ), wfc  2 (l=1 m= 2)
     state #   4: atom   1 (Si ), wfc  2 (l=1 m= 3)
     state #   5: atom   2 (Si ), wfc  1 (l=0 m= 1)
     state #   6: atom   2 (Si ), wfc  2 (l=1 m= 1)
     state #   7: atom   2 (Si ), wfc  2 (l=1 m= 2)
     state #   8: atom   2 (Si ), wfc  2 (l=1 m= 3)

 k =   0.1250000000  0.1250000000  0.1250000000
==== e(   1) =    -5.93103 eV ==== 
     psi = 0.453*[#   1]+0.453*[#   5]+0.016*[#   2]+0.016*[#   3]+0.016*[#   4]+
          +0.016*[#   6]+0.016*[#   7]+0.016*[#   8]+
    |psi|^2 = 1.000
==== e(   2) =     4.24224 eV ==== 
     psi = 0.138*[#   2]+0.138*[#   3]+0.138*[#   4]+0.138*[#   6]+0.138*[#   7]+
          +0.138*[#   8]+0.086*[#   1]+0.086*[#   5]+
    |psi|^2 = 1.000
==== e(   3) =     5.51849 eV ==== 
     psi = 0.167*[#   2]+0.167*[#   3]+0.167*[#   4]+0.167*[#   6]+0.167*[#   7]+
          +0.167*[#   8]+
    |psi|^2 = 1.000
==== e(   4) =     5.51849 eV ==== 
     psi = 0.167*[#   2]+0.167*[#   3]+0.167*[#   4]+0.167*[#   6]+0.167*[#   7]+
          +0.167*[#   8]+
    |psi|^2 = 0.999

 k =   0.1250000000  0.1250000000  0.3750000000
==== e(   1) =    -5.39310 eV ==== 
     psi = 0.385*[#   1]+0.385*[#   5]+0.038*[#   2]+0.038*[#   3]+0.038*[#   4]+
          +0.038*[#   6]+0.038*[#   7]+0.038*[#   8]+
    |psi|^2 = 1.000
==== e(   2) =     2.62064 eV ==== 
     psi = 0.144*[#   1]+0.144*[#   5]+0.118*[#   2]+0.118*[#   3]+0.118*[#   4]+
          +0.118*[#   6]+0.118*[#   7]+0.118*[#   8]+
    |psi|^2 = 1.000
==== e(   3) =     4.51845 eV ==== 
     psi = 0.167*[#   2]+0.167*[#   3]+0.167*[#   4]+0.167*[#   6]+0.167*[#   7]+
          +0.167*[#   8]+
    |psi|^2 = 1.000
==== e(   4) =     4.59709 eV ==== 
     psi = 0.152*[#   2]+0.152*[#   3]+0.152*[#   4]+0.152*[#   6]+0.152*[#   7]+
          +0.152*[#   8]+0.043*[#   1]+0.043*[#   5]+
    |psi|^2 = 1.000

 k =   0.1250000000  0.1250000000  0.6250000000
==== e(   1) =    -4.33890 eV ==== 
     psi = 0.328*[#   1]+0.328*[#   5]+0.057*[#   2]+0.057*[#   3]+0.057*[#   4]+
          +0.057*[#   6]+0.057*[#   7]+0.057*[#   8]+
    |psi|^2 = 1.000
==== e(   2) =     0.89453 eV ==== 
     psi = 0.216*[#   1]+0.216*[#   5]+0.094*[#   2]+0.094*[#   3]+0.094*[#   4]+
          +0.094*[#   6]+0.094*[#   7]+0.094*[#   8]+
    |psi|^2 = 1.000
==== e(   3) =     3.19647 eV ==== 
     psi = 0.158*[#   2]+0.158*[#   3]+0.158*[#   4]+0.158*[#   6]+0.158*[#   7]+
          +0.158*[#   8]+0.025*[#   1]+0.025*[#   5]+
    |psi|^2 = 1.000
==== e(   4) =     3.63658 eV ==== 
     psi = 0.167*[#   2]+0.167*[#   3]+0.167*[#   4]+0.167*[#   6]+0.167*[#   7]+
          +0.167*[#   8]+
    |psi|^2 = 1.000

 k =   0.1250000000  0.1250000000  0.8750000000
==== e(   1) =    -2.83731 eV ==== 
     psi = 0.293*[#   1]+0.293*[#   5]+0.069*[#   2]+0.069*[#   3]+0.069*[#   4]+
          +0.069*[#   6]+0.069*[#   7]+0.069*[#   8]+
    |psi|^2 = 1.000
==== e(   2) =    -0.99795 eV ==== 
     psi = 0.261*[#   1]+0.261*[#   5]+0.080*[#   2]+0.080*[#   3]+0.080*[#   4]+
          +0.080*[#   6]+0.080*[#   7]+0.080*[#   8]+
    |psi|^2 = 1.000
==== e(   3) =     2.43946 eV ==== 
     psi = 0.164*[#   2]+0.164*[#   3]+0.164*[#   4]+0.164*[#   6]+0.164*[#   7]+
          +0.164*[#   8]+0.007*[#   1]+0.007*[#   5]+
    |psi|^2 = 1.000
==== e(   4) =     3.16282 eV ==== 
     psi = 0.167*[#   2]+0.167*[#   3]+0.167*[#   4]+0.167*[#   6]+0.167*[#   7]+
          +0.167*[#   8]+
    |psi|^2 = 1.000

 k =   0.1250000000  0.3750000000  0.3750000000
==== e(   1) =    -4.88359 eV ==== 
     psi = 0.361*[#   1]+0.361*[#   5]+0.046*[#   2]+0.046*[#   3]+0.046*[#   4]+
          +0.046*[#   6]+0.046*[#   7]+0.046*[#   8]+
    |psi|^2 = 1.000
==== e(   2) =     1.22523 eV ==== 
     psi = 0.157*[#   1]+0.157*[#   5]+0.114*[#   2]+0.114*[#   3]+0.114*[#   4]+
          +0.114*[#   6]+0.114*[#   7]+0.114*[#   8]+
    |psi|^2 = 1.000
==== e(   3) =     3.55301 eV ==== 
     psi = 0.152*[#   2]+0.152*[#   3]+0.152*[#   4]+0.152*[#   6]+0.152*[#   7]+
          +0.152*[#   8]+0.043*[#   1]+0.043*[#   5]+
    |psi|^2 = 1.000
==== e(   4) =     5.03482 eV ==== 
     psi = 0.167*[#   2]+0.167*[#   3]+0.167*[#   4]+0.167*[#   6]+0.167*[#   7]+
          +0.167*[#   8]+
    |psi|^2 = 1.000

 k =   0.1250000000  0.3750000000  0.6250000000
==== e(   1) =    -3.91290 eV ==== 
     psi = 0.334*[#   1]+0.334*[#   5]+0.055*[#   2]+0.055*[#   3]+0.055*[#   4]+
          +0.055*[#   6]+0.055*[#   7]+0.055*[#   8]+
    |psi|^2 = 1.000
==== e(   2) =     0.00310 eV ==== 
     psi = 0.193*[#   1]+0.193*[#   5]+0.102*[#   2]+0.102*[#   3]+0.102*[#   4]+
          +0.102*[#   6]+0.102*[#   7]+0.102*[#   8]+
    |psi|^2 = 1.000
==== e(   3) =     2.55533 eV ==== 
     psi = 0.151*[#   2]+0.151*[#   3]+0.151*[#   4]+0.151*[#   6]+0.151*[#   7]+
          +0.151*[#   8]+0.046*[#   1]+0.046*[#   5]+
    |psi|^2 = 1.000
==== e(   4) =     3.91909 eV ==== 
     psi = 0.165*[#   2]+0.165*[#   3]+0.165*[#   4]+0.165*[#   6]+0.165*[#   7]+
          +0.165*[#   8]+0.006*[#   1]+0.006*[#   5]+
    |psi|^2 = 1.000

 k =   0.1250000000  0.3750000000  0.8750000000
==== e(   1) =    -2.66431 eV ==== 
     psi = 0.315*[#   1]+0.315*[#   5]+0.062*[#   2]+0.062*[#   3]+0.062*[#   4]+
          +0.062*[#   6]+0.062*[#   7]+0.062*[#   8]+
    |psi|^2 = 1.000
==== e(   2) =    -1.09935 eV ==== 
     psi = 0.253*[#   1]+0.253*[#   5]+0.082*[#   2]+0.082*[#   3]+0.082*[#   4]+
          +0.082*[#   6]+0.082*[#   7]+0.082*[#   8]+
    |psi|^2 = 1.000
==== e(   3) =     1.82909 eV ==== 
     psi = 0.163*[#   2]+0.163*[#   3]+0.163*[#   4]+0.163*[#   6]+0.163*[#   7]+
          +0.163*[#   8]+0.011*[#   1]+0.011*[#   5]+
    |psi|^2 = 1.000
==== e(   4) =     2.91056 eV ==== 
     psi = 0.166*[#   2]+0.166*[#   3]+0.166*[#   4]+0.166*[#   6]+0.166*[#   7]+
          +0.166*[#   8]+0.003*[#   1]+0.003*[#   5]+
    |psi|^2 = 1.000

 k =   0.1250000000  0.6250000000  0.6250000000
==== e(   1) =    -3.20938 eV ==== 
     psi = 0.339*[#   1]+0.339*[#   5]+0.054*[#   2]+0.054*[#   3]+0.054*[#   4]+
          +0.054*[#   6]+0.054*[#   7]+0.054*[#   8]+
    |psi|^2 = 1.000
==== e(   2) =    -0.79774 eV ==== 
     psi = 0.199*[#   1]+0.199*[#   5]+0.100*[#   2]+0.100*[#   3]+0.100*[#   4]+
          +0.100*[#   6]+0.100*[#   7]+0.100*[#   8]+
    |psi|^2 = 1.000
==== e(   3) =     1.89289 eV ==== 
     psi = 0.156*[#   2]+0.156*[#   3]+0.156*[#   4]+0.156*[#   6]+0.156*[#   7]+
          +0.156*[#   8]+0.033*[#   1]+0.033*[#   5]+
    |psi|^2 = 1.000
==== e(   4) =     3.94882 eV ==== 
     psi = 0.167*[#   2]+0.167*[#   3]+0.167*[#   4]+0.167*[#   6]+0.167*[#   7]+
          +0.167*[#   8]+
    |psi|^2 = 1.000

 k =   0.3750000000  0.3750000000  0.3750000000
==== e(   1) =    -4.44178 eV ==== 
     psi = 0.365*[#   1]+0.365*[#   5]+0.045*[#   2]+0.045*[#   3]+0.045*[#   4]+
          +0.045*[#   6]+0.045*[#   7]+0.045*[#   8]+
    |psi|^2 = 1.000
==== e(   2) =    -0.08955 eV ==== 
     psi = 0.141*[#   1]+0.141*[#   5]+0.120*[#   2]+0.120*[#   3]+0.120*[#   4]+
          +0.120*[#   6]+0.120*[#   7]+0.120*[#   8]+
    |psi|^2 = 1.000
==== e(   3) =     4.72821 eV ==== 
     psi = 0.167*[#   2]+0.167*[#   3]+0.167*[#   4]+0.167*[#   6]+0.167*[#   7]+
          +0.167*[#   8]+
    |psi|^2 = 1.000
==== e(   4) =     4.72821 eV ==== 
     psi = 0.167*[#   2]+0.167*[#   3]+0.167*[#   4]+0.167*[#   6]+0.167*[#   7]+
          +0.167*[#   8]+
    |psi|^2 = 1.000

 k =   0.3750000000  0.3750000000  0.6250000000
==== e(   1) =    -3.71562 eV ==== 
     psi = 0.366*[#   1]+0.366*[#   5]+0.045*[#   2]+0.045*[#   3]+0.045*[#   4]+
          +0.045*[#   6]+0.045*[#   7]+0.045*[#   8]+
    |psi|^2 = 1.000
==== e(   2) =    -0.89095 eV ==== 
     psi = 0.136*[#   1]+0.136*[#   5]+0.121*[#   2]+0.121*[#   3]+0.121*[#   4]+
          +0.121*[#   6]+0.121*[#   7]+0.121*[#   8]+
    |psi|^2 = 1.000
==== e(   3) =     3.57428 eV ==== 
     psi = 0.149*[#   2]+0.149*[#   3]+0.149*[#   4]+0.149*[#   6]+0.149*[#   7]+
          +0.149*[#   8]+0.054*[#   1]+0.054*[#   5]+
    |psi|^2 = 1.000
==== e(   4) =     4.26583 eV ==== 
     psi = 0.167*[#   2]+0.167*[#   3]+0.167*[#   4]+0.167*[#   6]+0.167*[#   7]+
          +0.167*[#   8]+
    |psi|^2 = 1.000

Lowdin Charges: 

     Atom #   1: total charge =   3.9994, s =  1.1361, 
     Atom #   1: total charge =   3.9994, p =  2.8633, pz=  0.9544, px=  0.9544, py=  0.9544, 
     Atom #   2: total charge =   3.9994, s =  1.1361, 
     Atom #   2: total charge =   3.9994, p =  2.8633, pz=  0.9544, px=  0.9544, py=  0.9544, 
     Spilling Parameter:   0.0001
 
     PROJWFC      :     0.49s CPU         0.51s WALL

 
   This run was terminated on:  11: 6:37   4Mar2016            

=------------------------------------------------------------------------------=
   JOB DONE.
=------------------------------------------------------------------------------=
