
     Program PWSCF v.5.4.0 (svn rev. 12590M) starts on 21Jul2016 at 16:29:45 

     This program is part of the open-source Quantum ESPRESSO suite
     for quantum simulation of materials; please cite
         "P. Giannozzi et al., J. Phys.:Condens. Matter 21 395502 (2009);
          URL http://www.quantum-espresso.org", 
     in publications or presentations arising from this work. More details at
     http://www.quantum-espresso.org/quote
 
           HOST :    x86_64-pc-linux-gnu
           ARCH :    x86_64
             CC :    icc
            CPP :    cpp
            F90 :    gfortran
            F77 :    gfortran
         DFLAGS :    -D__GFORTRAN -D__STD_F95 -D__DFTI -D__MPI -D__PARA -D__HDF5
      BLAS LIBS :    -lmkl_gf_lp64  -lmkl_sequential -lmkl_core
    LAPACK LIBS :    
       FFT LIBS :    
      MASS LIBS :    

     Parallel version (MPI), running on     2 processors
     R & G space division:  proc/nbgrp/npool/nimage =       2
     Waiting for input...
     Reading input from standard input

     Current dimensions of program PWSCF are:
     Max number of different atomic species (ntypx) = 10
     Max number of k-points (npk) =  40000
     Max angular momentum in pseudopotentials (lmaxx) =  3

     Subspace diagonalization in iterative solution of the eigenvalue problem:
     a serial algorithm will be used

 
     Parallelization info
     --------------------
     sticks:   dense  smooth     PW     G-vecs:    dense   smooth      PW
     Min        2692     894    218               148229    28524    3560
     Max        2693     895    219               148230    28527    3563
     Sum        5385    1789    437               296459    57051    7123
 


     bravais-lattice index     =            1
     lattice parameter (alat)  =      15.0000  a.u.
     unit-cell volume          =    3375.0000 (a.u.)^3
     number of atoms/cell      =            5
     number of atomic types    =            2
     number of electrons       =         8.00
     number of Kohn-Sham states=            4
     kinetic-energy cutoff     =      25.0000  Ry
     charge density cutoff     =     300.0000  Ry
     convergence threshold     =      1.0E-10
     mixing beta               =       0.5000
     number of iterations used =            8  plain     mixing
     Exchange-correlation      =  SLA  PZ   NOGX NOGC ( 1  1  0  0 0 0)

     celldm(1)=  15.000000  celldm(2)=   0.000000  celldm(3)=   0.000000
     celldm(4)=   0.000000  celldm(5)=   0.000000  celldm(6)=   0.000000

     crystal axes: (cart. coord. in units of alat)
               a(1) = (   1.000000   0.000000   0.000000 )  
               a(2) = (   0.000000   1.000000   0.000000 )  
               a(3) = (   0.000000   0.000000   1.000000 )  

     reciprocal axes: (cart. coord. in units 2 pi/alat)
               b(1) = (  1.000000  0.000000  0.000000 )  
               b(2) = (  0.000000  1.000000  0.000000 )  
               b(3) = (  0.000000  0.000000  1.000000 )  


     PseudoPot. # 1 for  H read from file:
     /home/nvarini/espresso_hdf5/espresso/pseudo/H.pz-kjpaw.UPF
     MD5 check sum: cc591b1df2b23d1817e99afd75b23f5a
     Pseudo is Projector augmented-wave, Zval =  1.0
     Generated using "atomic" code by A. Dal Corso (espresso distribution)
     Shape of augmentation charge: PSQ
     Using radial grid of  929 points,  2 beta functions with: 
                l(1) =   0
                l(2) =   0
     Q(r) pseudized with 0 coefficients 


     PseudoPot. # 2 for  C read from file:
     /home/nvarini/espresso_hdf5/espresso/pseudo/C.pz-kjpaw.UPF
     MD5 check sum: 414e6e825ae75add557e798061b49a04
     Pseudo is Projector augmented-wave + core cor, Zval =  4.0
     Generated using "atomic" code by A. Dal Corso (espresso distribution)
     Shape of augmentation charge: BESSEL
     Using radial grid of 1073 points,  4 beta functions with: 
                l(1) =   0
                l(2) =   0
                l(3) =   1
                l(4) =   1
     Q(r) pseudized with 0 coefficients 


     atomic species   valence    mass     pseudopotential
        H              1.00     1.00794      H( 1.00)
        C              4.00    12.01070      C( 1.00)

     24 Sym. Ops. (no inversion) found



   Cartesian axes

     site n.     atom                  positions (alat units)
         1           H   tau(   1) = (   0.0807289   0.0807289   0.0807289  )
         2           H   tau(   2) = (  -0.0807289  -0.0807289   0.0807289  )
         3           H   tau(   3) = (   0.0807289  -0.0807289  -0.0807289  )
         4           H   tau(   4) = (  -0.0807289   0.0807289  -0.0807289  )
         5           C   tau(   5) = (   0.0000000   0.0000000   0.0000000  )

     number of k points=     1
                       cart. coord. in units 2pi/alat
        k(    1) = (   0.0000000   0.0000000   0.0000000), wk =   2.0000000

     Dense  grid:   296459 G-vectors     FFT dimensions: (  90,  90,  90)

     Smooth grid:    57051 G-vectors     FFT dimensions: (  48,  48,  48)

     Largest allocated arrays     est. size (Mb)     dimensions
        Kohn-Sham Wavefunctions         0.22 Mb     (    3560,    4)
        NL pseudopotentials             0.87 Mb     (    3560,   16)
        Each V/rho on FFT grid          5.56 Mb     (  364500)
        Each G-vector array             1.13 Mb     (  148230)
        G-vector shells                 0.01 Mb     (    1428)
     Largest temporary arrays     est. size (Mb)     dimensions
        Auxiliary wavefunctions         0.87 Mb     (    3560,   16)
        Each subspace H/S matrix        0.00 Mb     (      16,   16)
        Each <psi_i|beta_j> matrix      0.00 Mb     (      16,    4)
        Arrays for rho mixing          44.49 Mb     (  364500,    8)

     Initial potential from superposition of free atoms

     starting charge    7.99992, renormalised to    8.00000

     negative rho (up, down):  4.417E-05 0.000E+00
     Starting wfc are   20 randomized atomic wfcs
     Checking if some PAW data can be deallocated... 

     total cpu time spent up to now is        1.2 secs

     per-process dynamical memory:    85.3 Mb

     Self-consistent Calculation

     iteration #  1     ecut=    25.00 Ry     beta=0.50
     Davidson diagonalization with overlap
     ethr =  1.00E-02,  avg # of iterations =  2.0

     negative rho (up, down):  2.628E-06 0.000E+00

     total cpu time spent up to now is        1.6 secs

     total energy              =     -22.27323870 Ry
     Harris-Foulkes estimate   =     -22.67821170 Ry
     estimated scf accuracy    <       0.68530543 Ry

     iteration #  2     ecut=    25.00 Ry     beta=0.50
     Davidson diagonalization with overlap
     ethr =  8.57E-03,  avg # of iterations =  2.0

     negative rho (up, down):  4.266E-05 0.000E+00

     total cpu time spent up to now is        2.1 secs

     total energy              =     -22.41157633 Ry
     Harris-Foulkes estimate   =     -22.43141520 Ry
     estimated scf accuracy    <       0.04751372 Ry

     iteration #  3     ecut=    25.00 Ry     beta=0.50
     Davidson diagonalization with overlap
     ethr =  5.94E-04,  avg # of iterations =  2.0

     negative rho (up, down):  1.906E-03 0.000E+00

     total cpu time spent up to now is        2.5 secs

     total energy              =     -22.41104255 Ry
     Harris-Foulkes estimate   =     -22.41710615 Ry
     estimated scf accuracy    <       0.01275844 Ry

     iteration #  4     ecut=    25.00 Ry     beta=0.50
     Davidson diagonalization with overlap
     ethr =  1.59E-04,  avg # of iterations =  2.0

     negative rho (up, down):  3.885E-04 0.000E+00

     total cpu time spent up to now is        2.9 secs

     total energy              =     -22.41205003 Ry
     Harris-Foulkes estimate   =     -22.41430690 Ry
     estimated scf accuracy    <       0.00503121 Ry

     iteration #  5     ecut=    25.00 Ry     beta=0.50
     Davidson diagonalization with overlap
     ethr =  6.29E-05,  avg # of iterations =  1.0

     negative rho (up, down):  2.113E-04 0.000E+00

     total cpu time spent up to now is        3.3 secs

     total energy              =     -22.41226394 Ry
     Harris-Foulkes estimate   =     -22.41238113 Ry
     estimated scf accuracy    <       0.00048249 Ry

     iteration #  6     ecut=    25.00 Ry     beta=0.50
     Davidson diagonalization with overlap
     ethr =  6.03E-06,  avg # of iterations =  2.0

     negative rho (up, down):  9.842E-05 0.000E+00

     total cpu time spent up to now is        3.8 secs

     total energy              =     -22.41231788 Ry
     Harris-Foulkes estimate   =     -22.41234711 Ry
     estimated scf accuracy    <       0.00008100 Ry

     iteration #  7     ecut=    25.00 Ry     beta=0.50
     Davidson diagonalization with overlap
     ethr =  1.01E-06,  avg # of iterations =  2.0

     negative rho (up, down):  5.191E-05 0.000E+00

     total cpu time spent up to now is        4.2 secs

     total energy              =     -22.41233292 Ry
     Harris-Foulkes estimate   =     -22.41233392 Ry
     estimated scf accuracy    <       0.00000844 Ry

     iteration #  8     ecut=    25.00 Ry     beta=0.50
     Davidson diagonalization with overlap
     ethr =  1.05E-07,  avg # of iterations =  1.0

     negative rho (up, down):  3.747E-05 0.000E+00

     total cpu time spent up to now is        4.6 secs

     total energy              =     -22.41233145 Ry
     Harris-Foulkes estimate   =     -22.41233324 Ry
     estimated scf accuracy    <       0.00000546 Ry

     iteration #  9     ecut=    25.00 Ry     beta=0.50
     Davidson diagonalization with overlap
     ethr =  6.82E-08,  avg # of iterations =  1.0

     negative rho (up, down):  3.545E-05 0.000E+00

     total cpu time spent up to now is        5.0 secs

     total energy              =     -22.41233096 Ry
     Harris-Foulkes estimate   =     -22.41233177 Ry
     estimated scf accuracy    <       0.00000512 Ry

     iteration # 10     ecut=    25.00 Ry     beta=0.50
     Davidson diagonalization with overlap
     ethr =  6.40E-08,  avg # of iterations =  1.0

     negative rho (up, down):  3.505E-05 0.000E+00

     total cpu time spent up to now is        5.5 secs

     total energy              =     -22.41233082 Ry
     Harris-Foulkes estimate   =     -22.41233103 Ry
     estimated scf accuracy    <       0.00000392 Ry

     iteration # 11     ecut=    25.00 Ry     beta=0.50
     Davidson diagonalization with overlap
     ethr =  4.90E-08,  avg # of iterations =  1.0

     negative rho (up, down):  3.511E-05 0.000E+00

     total cpu time spent up to now is        5.9 secs

     total energy              =     -22.41233087 Ry
     Harris-Foulkes estimate   =     -22.41233109 Ry
     estimated scf accuracy    <       0.00000087 Ry

     iteration # 12     ecut=    25.00 Ry     beta=0.50
     Davidson diagonalization with overlap
     ethr =  1.09E-08,  avg # of iterations =  2.0

     negative rho (up, down):  3.513E-05 0.000E+00

     total cpu time spent up to now is        6.3 secs

     total energy              =     -22.41233098 Ry
     Harris-Foulkes estimate   =     -22.41233101 Ry
     estimated scf accuracy    <       0.00000012 Ry

     iteration # 13     ecut=    25.00 Ry     beta=0.50
     Davidson diagonalization with overlap
     ethr =  1.45E-09,  avg # of iterations =  1.0

     negative rho (up, down):  3.523E-05 0.000E+00

     total cpu time spent up to now is        6.7 secs

     total energy              =     -22.41233099 Ry
     Harris-Foulkes estimate   =     -22.41233099 Ry
     estimated scf accuracy    <       0.00000003 Ry

     iteration # 14     ecut=    25.00 Ry     beta=0.50
     Davidson diagonalization with overlap
     ethr =  3.43E-10,  avg # of iterations =  2.0

     negative rho (up, down):  3.530E-05 0.000E+00

     total cpu time spent up to now is        7.2 secs

     total energy              =     -22.41233144 Ry
     Harris-Foulkes estimate   =     -22.41233105 Ry
     estimated scf accuracy    <       0.00000021 Ry

     iteration # 15     ecut=    25.00 Ry     beta=0.50
     Davidson diagonalization with overlap
     ethr =  3.43E-10,  avg # of iterations =  3.0

     negative rho (up, down):  3.540E-05 0.000E+00

     total cpu time spent up to now is        7.6 secs

     total energy              =     -22.41232962 Ry
     Harris-Foulkes estimate   =     -22.41233146 Ry
     estimated scf accuracy    <       0.00000065 Ry

     iteration # 16     ecut=    25.00 Ry     beta=0.50
     Davidson diagonalization with overlap
     ethr =  3.43E-10,  avg # of iterations =  4.0

     negative rho (up, down):  3.531E-05 0.000E+00

     total cpu time spent up to now is        8.1 secs

     total energy              =     -22.41233097 Ry
     Harris-Foulkes estimate   =     -22.41232998 Ry
     estimated scf accuracy    <       0.00000042 Ry

     iteration # 17     ecut=    25.00 Ry     beta=0.50
     Davidson diagonalization with overlap
     ethr =  3.43E-10,  avg # of iterations =  3.0

     negative rho (up, down):  3.532E-05 0.000E+00

     total cpu time spent up to now is        8.5 secs

     total energy              =     -22.41233100 Ry
     Harris-Foulkes estimate   =     -22.41233101 Ry
     estimated scf accuracy    <       0.00000007 Ry

     iteration # 18     ecut=    25.00 Ry     beta=0.50
     Davidson diagonalization with overlap
     ethr =  3.43E-10,  avg # of iterations =  1.0

     negative rho (up, down):  3.529E-05 0.000E+00

     total cpu time spent up to now is        8.9 secs

     total energy              =     -22.41233098 Ry
     Harris-Foulkes estimate   =     -22.41233100 Ry
     estimated scf accuracy    <       0.00000005 Ry

     iteration # 19     ecut=    25.00 Ry     beta=0.50
     Davidson diagonalization with overlap
     ethr =  3.43E-10,  avg # of iterations =  2.0

     negative rho (up, down):  3.529E-05 0.000E+00

     total cpu time spent up to now is        9.3 secs

     total energy              =     -22.41233099 Ry
     Harris-Foulkes estimate   =     -22.41233099 Ry
     estimated scf accuracy    <          7.2E-09 Ry

     iteration # 20     ecut=    25.00 Ry     beta=0.50
     Davidson diagonalization with overlap
     ethr =  9.00E-11,  avg # of iterations =  1.0

     negative rho (up, down):  3.529E-05 0.000E+00

     total cpu time spent up to now is        9.8 secs

     total energy              =     -22.41233098 Ry
     Harris-Foulkes estimate   =     -22.41233099 Ry
     estimated scf accuracy    <          6.8E-09 Ry

     iteration # 21     ecut=    25.00 Ry     beta=0.50
     Davidson diagonalization with overlap
     ethr =  8.50E-11,  avg # of iterations =  2.0

     negative rho (up, down):  3.529E-05 0.000E+00

     total cpu time spent up to now is       10.2 secs

     total energy              =     -22.41233099 Ry
     Harris-Foulkes estimate   =     -22.41233099 Ry
     estimated scf accuracy    <          3.0E-10 Ry

     iteration # 22     ecut=    25.00 Ry     beta=0.50
     Davidson diagonalization with overlap
     ethr =  3.73E-12,  avg # of iterations =  1.0

     negative rho (up, down):  3.528E-05 0.000E+00

     total cpu time spent up to now is       10.6 secs

     total energy              =     -22.41233099 Ry
     Harris-Foulkes estimate   =     -22.41233099 Ry
     estimated scf accuracy    <          1.7E-10 Ry

     iteration # 23     ecut=    25.00 Ry     beta=0.50
     Davidson diagonalization with overlap
     ethr =  2.09E-12,  avg # of iterations =  2.0

     negative rho (up, down):  3.528E-05 0.000E+00

     total cpu time spent up to now is       11.0 secs

     total energy              =     -22.41233099 Ry
     Harris-Foulkes estimate   =     -22.41233099 Ry
     estimated scf accuracy    <          6.1E-10 Ry

     iteration # 24     ecut=    25.00 Ry     beta=0.50
     Davidson diagonalization with overlap
     ethr =  2.09E-12,  avg # of iterations =  1.0

     negative rho (up, down):  3.527E-05 0.000E+00

     total cpu time spent up to now is       11.5 secs

     total energy              =     -22.41233099 Ry
     Harris-Foulkes estimate   =     -22.41233099 Ry
     estimated scf accuracy    <          8.0E-10 Ry

     iteration # 25     ecut=    25.00 Ry     beta=0.50
     Davidson diagonalization with overlap
     ethr =  2.09E-12,  avg # of iterations =  3.0

     negative rho (up, down):  3.527E-05 0.000E+00

     total cpu time spent up to now is       11.9 secs

     End of self-consistent calculation

          k = 0.0000 0.0000 0.0000 (  7123 PWs)   bands (ev):

   -16.5442  -9.0385  -9.0385  -9.0385

     highest occupied level (ev):    -9.0385

!    total energy              =     -22.41233099 Ry
     Harris-Foulkes estimate   =     -22.41233099 Ry
     estimated scf accuracy    <          1.1E-11 Ry

     total all-electron energy =       -80.191829 Ry

     The total energy is the sum of the following terms:

     one-electron contribution =     -34.74291505 Ry
     hartree contribution      =      18.30925571 Ry
     xc contribution           =      -6.77521558 Ry
     ewald contribution        =       6.82606319 Ry
     one-center paw contrib.   =      -6.02951925 Ry

     convergence has been achieved in  25 iterations

     negative rho (up, down):  3.527E-05 0.000E+00

     Forces acting on atoms (Ry/au):

     atom    1 type  1   force =     0.00003994    0.00003994    0.00003994
     atom    2 type  1   force =    -0.00003994   -0.00003994    0.00003994
     atom    3 type  1   force =     0.00003994   -0.00003994   -0.00003994
     atom    4 type  1   force =    -0.00003994    0.00003994   -0.00003994
     atom    5 type  2   force =     0.00000000    0.00000000    0.00000000

     Total force =     0.000138     Total SCF correction =     0.000002

     Writing output data file ch4.save
 
     init_run     :      0.86s CPU      0.90s WALL (       1 calls)
     electrons    :      9.24s CPU     10.68s WALL (       1 calls)
     forces       :      0.27s CPU      0.32s WALL (       1 calls)

     Called by init_run:
     wfcinit      :      0.05s CPU      0.05s WALL (       1 calls)
     potinit      :      0.12s CPU      0.13s WALL (       1 calls)

     Called by electrons:
     c_bands      :      0.72s CPU      0.72s WALL (      25 calls)
     sum_band     :      4.28s CPU      5.00s WALL (      25 calls)
     v_of_rho     :      1.01s CPU      1.05s WALL (      26 calls)
     newd         :      2.00s CPU      2.67s WALL (      26 calls)
     PAW_pot      :      0.17s CPU      0.18s WALL (      26 calls)
     mix_rho      :      0.78s CPU      0.79s WALL (      25 calls)

     Called by c_bands:
     init_us_2    :      0.06s CPU      0.06s WALL (      51 calls)
     cegterg      :      0.64s CPU      0.64s WALL (      25 calls)

     Called by sum_band:
     sum_band:bec :      0.00s CPU      0.00s WALL (      25 calls)
     addusdens    :      2.90s CPU      3.58s WALL (      25 calls)

     Called by *egterg:
     h_psi        :      0.58s CPU      0.59s WALL (      71 calls)
     s_psi        :      0.02s CPU      0.02s WALL (      71 calls)
     g_psi        :      0.00s CPU      0.01s WALL (      45 calls)
     cdiaghg      :      0.01s CPU      0.01s WALL (      70 calls)

     Called by h_psi:
     add_vuspsi   :      0.01s CPU      0.02s WALL (      71 calls)

     General routines
     calbec       :      0.04s CPU      0.03s WALL (     100 calls)
     fft          :      2.14s CPU      2.26s WALL (     234 calls)
     ffts         :      0.07s CPU      0.06s WALL (      51 calls)
     fftw         :      0.43s CPU      0.44s WALL (     678 calls)
     interpolate  :      0.60s CPU      0.64s WALL (      51 calls)
 
     Parallel routines
     fft_scatter  :      0.81s CPU      0.88s WALL (     963 calls)
 
     PWSCF        :    10.71s CPU        12.29s WALL

 
   This run was terminated on:  16:29:57  21Jul2016            

=------------------------------------------------------------------------------=
   JOB DONE.
=------------------------------------------------------------------------------=
