
     Program PHONON v.6.beta (svn rev. 12834M) starts on 25Aug2016 at 11:31:15 

     This program is part of the open-source Quantum ESPRESSO suite
     for quantum simulation of materials; please cite
         "P. Giannozzi et al., J. Phys.:Condens. Matter 21 395502 (2009);
          URL http://www.quantum-espresso.org", 
     in publications or presentations arising from this work. More details at
     http://www.quantum-espresso.org/quote
 
           HOST :    x86_64-pc-linux-gnu
           ARCH :    x86_64
             CC :    icc
            CPP :    cpp
            F90 :    ifort
            F77 :    ifort
         DFLAGS :    -D__INTEL -D__FFTW -D__MPI -D__PARA -D__HDF5
      BLAS LIBS :    -lmkl_intel_lp64  -lmkl_sequential -lmkl_core
    LAPACK LIBS :    
       FFT LIBS :    
      MASS LIBS :    

     Parallel version (MPI), running on     2 processors
     R & G space division:  proc/nbgrp/npool/nimage =       2

     Reading data from directory:
     /home/nvarini/espresso_hdf5/espresso/tempdir/ch4.save

   Info: using nr1, nr2, nr3 values from input

   Info: using nr1, nr2, nr3 values from input

     IMPORTANT: XC functional enforced from input :
     Exchange-correlation      =  SLA  PZ   NOGX NOGC ( 1  1  0  0 0 0)
     Any further DFT definition will be discarded
     Please, verify this is what you really want

 
     Parallelization info
     --------------------
     sticks:   dense  smooth     PW     G-vecs:    dense   smooth      PW
     Min        2692     894    218               148229    28525    3560
     Max        2693     895    219               148230    28526    3563
     Sum        5385    1789    437               296459    57051    7123
 

     negative rho (up, down):  3.527E-05 0.000E+00

     Calculation of q =    0.0000000   0.0000000   0.0000000

                                                                                

     bravais-lattice index     =            1
     lattice parameter (alat)  =      15.0000  a.u.
     unit-cell volume          =    3375.0000 (a.u.)^3
     number of atoms/cell      =            5
     number of atomic types    =            2
     kinetic-energy cut-off    =      25.0000  Ry
     charge density cut-off    =     300.0000  Ry
     convergence threshold     =      4.0E-17
     beta                      =       0.7000
     number of iterations used =            4
     Exchange-correlation      =  SLA  PZ   NOGX NOGC ( 1  1  0  0 0 0)


     celldm(1)=   15.00000  celldm(2)=    0.00000  celldm(3)=    0.00000
     celldm(4)=    0.00000  celldm(5)=    0.00000  celldm(6)=    0.00000

     crystal axes: (cart. coord. in units of alat)
               a(1) = (  1.0000  0.0000  0.0000 )  
               a(2) = (  0.0000  1.0000  0.0000 )  
               a(3) = (  0.0000  0.0000  1.0000 )  

     reciprocal axes: (cart. coord. in units 2 pi/alat)
               b(1) = (  1.0000  0.0000  0.0000 )  
               b(2) = (  0.0000  1.0000  0.0000 )  
               b(3) = (  0.0000  0.0000  1.0000 )  


     Atoms inside the unit cell: 

     Cartesian axes

     site n.  atom      mass           positions (alat units)
        1     H    1.0079   tau(    1) = (    0.08073    0.08073    0.08073  )
        2     H    1.0079   tau(    2) = (   -0.08073   -0.08073    0.08073  )
        3     H    1.0079   tau(    3) = (    0.08073   -0.08073   -0.08073  )
        4     H    1.0079   tau(    4) = (   -0.08073    0.08073   -0.08073  )
        5     C   12.0107   tau(    5) = (    0.00000    0.00000    0.00000  )

     Computing dynamical matrix for 
                    q = (   0.0000000   0.0000000   0.0000000 )
 
     25 Sym.Ops. (with q -> -q+G )


     G cutoff = 1709.7950  ( 148230 G-vectors)     FFT grid: ( 90, 90, 90)
     G cutoff =  569.9317  (  28525 G-vectors)  smooth grid: ( 48, 48, 48)
     number of k points=     1
                       cart. coord. in units 2pi/alat
        k(    1) = (   0.0000000   0.0000000   0.0000000), wk =   2.0000000

     PseudoPot. # 1 for  H read from file:
     /home/nvarini/espresso_hdf5/espresso/pseudo/H.pz-kjpaw.UPF
     MD5 check sum: cc591b1df2b23d1817e99afd75b23f5a
     Pseudo is Projector augmented-wave, Zval =  1.0
     Generated using "atomic" code by A. Dal Corso (espresso distribution)
     Shape of augmentation charge: PSQ
     Using radial grid of  929 points,  2 beta functions with: 
                l(1) =   0
                l(2) =   0
     Q(r) pseudized with 0 coefficients 


     PseudoPot. # 2 for  C read from file:
     /home/nvarini/espresso_hdf5/espresso/pseudo/C.pz-kjpaw.UPF
     MD5 check sum: 414e6e825ae75add557e798061b49a04
     Pseudo is Projector augmented-wave + core cor, Zval =  4.0
     Generated using "atomic" code by A. Dal Corso (espresso distribution)
     Shape of augmentation charge: BESSEL
     Using radial grid of 1073 points,  4 beta functions with: 
                l(1) =   0
                l(2) =   0
                l(3) =   1
                l(4) =   1
     Q(r) pseudized with 0 coefficients 


     Mode symmetry, T_d (-43m)  point group:


     Atomic displacements:
     There are   6 irreducible representations

     Representation     1      1 modes -A_1  G_1  P_1  To be done

     Representation     2      2 modes -E    G_12 P_3  To be done

     Representation     3      3 modes -T_1  G_25 P_5  To be done

     Representation     4      3 modes -T_2  G_15 P_4  To be done

     Representation     5      3 modes -T_2  G_15 P_4  To be done

     Representation     6      3 modes -T_2  G_15 P_4  To be done



     Alpha used in Ewald sum =   2.8000

     negative rho (up, down):  3.527E-05 0.000E+00
     PHONON       :    18.18s CPU        18.47s WALL



     Representation #  1 mode #   1

     Self-consistent Calculation

      iter #   1 total cpu time :    20.3 secs   av.it.:   5.0
      thresh= 1.000E-02 alpha_mix =  0.700 |ddv_scf|^2 =  1.420E-08

      iter #   2 total cpu time :    22.1 secs   av.it.:  10.0
      thresh= 1.192E-05 alpha_mix =  0.700 |ddv_scf|^2 =  9.660E-09

      iter #   3 total cpu time :    24.0 secs   av.it.:  10.0
      thresh= 9.829E-06 alpha_mix =  0.700 |ddv_scf|^2 =  2.924E-11

      iter #   4 total cpu time :    25.8 secs   av.it.:   9.0
      thresh= 5.407E-07 alpha_mix =  0.700 |ddv_scf|^2 =  6.424E-12

      iter #   5 total cpu time :    27.7 secs   av.it.:   9.0
      thresh= 2.535E-07 alpha_mix =  0.700 |ddv_scf|^2 =  1.600E-14

      iter #   6 total cpu time :    29.6 secs   av.it.:  10.0
      thresh= 1.265E-08 alpha_mix =  0.700 |ddv_scf|^2 =  7.081E-17

      iter #   7 total cpu time :    31.4 secs   av.it.:  10.0
      thresh= 8.415E-10 alpha_mix =  0.700 |ddv_scf|^2 =  2.222E-19

     End of self-consistent calculation

     Convergence has been achieved 


     Representation #  2 modes #   2  3

     Self-consistent Calculation

      iter #   1 total cpu time :    34.2 secs   av.it.:   4.0
      thresh= 1.000E-02 alpha_mix =  0.700 |ddv_scf|^2 =  2.168E-10

      iter #   2 total cpu time :    36.8 secs   av.it.:  10.0
      thresh= 1.472E-06 alpha_mix =  0.700 |ddv_scf|^2 =  1.559E-11

      iter #   3 total cpu time :    39.7 secs   av.it.:  10.0
      thresh= 3.948E-07 alpha_mix =  0.700 |ddv_scf|^2 =  1.298E-13

      iter #   4 total cpu time :    42.3 secs   av.it.:  10.0
      thresh= 3.603E-08 alpha_mix =  0.700 |ddv_scf|^2 =  8.089E-16

      iter #   5 total cpu time :    44.9 secs   av.it.:  10.0
      thresh= 2.844E-09 alpha_mix =  0.700 |ddv_scf|^2 =  1.953E-17

     End of self-consistent calculation

     Convergence has been achieved 


     Representation #  3 modes #   4  5  6

     Self-consistent Calculation

      iter #   1 total cpu time :    48.8 secs   av.it.:   4.0
      thresh= 1.000E-02 alpha_mix =  0.700 |ddv_scf|^2 =  5.283E-11

      iter #   2 total cpu time :    52.4 secs   av.it.:  10.3
      thresh= 7.268E-07 alpha_mix =  0.700 |ddv_scf|^2 =  4.817E-12

      iter #   3 total cpu time :    56.1 secs   av.it.:  11.0
      thresh= 2.195E-07 alpha_mix =  0.700 |ddv_scf|^2 =  2.915E-15

      iter #   4 total cpu time :    59.8 secs   av.it.:  11.0
      thresh= 5.399E-09 alpha_mix =  0.700 |ddv_scf|^2 =  1.640E-16

      iter #   5 total cpu time :    63.4 secs   av.it.:  11.0
      thresh= 1.281E-09 alpha_mix =  0.700 |ddv_scf|^2 =  1.392E-19

     End of self-consistent calculation

     Convergence has been achieved 


     Representation #  4 modes #   7  8  9

     Self-consistent Calculation

      iter #   1 total cpu time :    67.7 secs   av.it.:   5.0
      thresh= 1.000E-02 alpha_mix =  0.700 |ddv_scf|^2 =  1.309E-10

      iter #   2 total cpu time :    71.4 secs   av.it.:  13.0
      thresh= 1.144E-06 alpha_mix =  0.700 |ddv_scf|^2 =  7.532E-12

      iter #   3 total cpu time :    75.2 secs   av.it.:  13.0
      thresh= 2.745E-07 alpha_mix =  0.700 |ddv_scf|^2 =  1.829E-13

      iter #   4 total cpu time :    79.2 secs   av.it.:  12.3
      thresh= 4.276E-08 alpha_mix =  0.700 |ddv_scf|^2 =  8.096E-15

      iter #   5 total cpu time :    83.1 secs   av.it.:  12.0
      thresh= 8.998E-09 alpha_mix =  0.700 |ddv_scf|^2 =  1.191E-16

      iter #   6 total cpu time :    86.8 secs   av.it.:  11.0
      thresh= 1.092E-09 alpha_mix =  0.700 |ddv_scf|^2 =  1.710E-18

     End of self-consistent calculation

     Convergence has been achieved 


     Representation #  5 modes #  10 11 12

     Self-consistent Calculation

      iter #   1 total cpu time :    91.1 secs   av.it.:   6.0
      thresh= 1.000E-02 alpha_mix =  0.700 |ddv_scf|^2 =  2.065E-08

      iter #   2 total cpu time :    95.2 secs   av.it.:  11.0
      thresh= 1.437E-05 alpha_mix =  0.700 |ddv_scf|^2 =  1.939E-09

      iter #   3 total cpu time :    98.9 secs   av.it.:  11.0
      thresh= 4.403E-06 alpha_mix =  0.700 |ddv_scf|^2 =  8.426E-11

      iter #   4 total cpu time :   102.7 secs   av.it.:  11.0
      thresh= 9.179E-07 alpha_mix =  0.700 |ddv_scf|^2 =  5.520E-14

      iter #   5 total cpu time :   106.4 secs   av.it.:  11.0
      thresh= 2.349E-08 alpha_mix =  0.700 |ddv_scf|^2 =  1.075E-15

      iter #   6 total cpu time :   110.0 secs   av.it.:  11.0
      thresh= 3.279E-09 alpha_mix =  0.700 |ddv_scf|^2 =  1.627E-18

     End of self-consistent calculation

     Convergence has been achieved 


     Representation #  6 modes #  13 14 15

     Self-consistent Calculation

      iter #   1 total cpu time :   114.3 secs   av.it.:   4.0
      thresh= 1.000E-02 alpha_mix =  0.700 |ddv_scf|^2 =  2.701E-10

      iter #   2 total cpu time :   118.1 secs   av.it.:  12.0
      thresh= 1.643E-06 alpha_mix =  0.700 |ddv_scf|^2 =  1.831E-11

      iter #   3 total cpu time :   121.8 secs   av.it.:  12.0
      thresh= 4.279E-07 alpha_mix =  0.700 |ddv_scf|^2 =  9.572E-13

      iter #   4 total cpu time :   125.5 secs   av.it.:  12.0
      thresh= 9.783E-08 alpha_mix =  0.700 |ddv_scf|^2 =  3.134E-15

      iter #   5 total cpu time :   129.3 secs   av.it.:  12.0
      thresh= 5.598E-09 alpha_mix =  0.700 |ddv_scf|^2 =  1.292E-16

      iter #   6 total cpu time :   132.9 secs   av.it.:  12.0
      thresh= 1.137E-09 alpha_mix =  0.700 |ddv_scf|^2 =  1.718E-18

     End of self-consistent calculation

     Convergence has been achieved 
 
     Number of q in the star =    1
     List of q in the star:
          1   0.000000000   0.000000000   0.000000000

     Diagonalizing the dynamical matrix

     q = (    0.000000000   0.000000000   0.000000000 ) 

 **************************************************************************
     freq (    1) =      -1.472764 [THz] =     -49.126125 [cm-1]
     freq (    2) =      -1.472764 [THz] =     -49.126125 [cm-1]
     freq (    3) =      -1.472764 [THz] =     -49.126125 [cm-1]
     freq (    4) =       0.388717 [THz] =      12.966188 [cm-1]
     freq (    5) =       0.388717 [THz] =      12.966188 [cm-1]
     freq (    6) =       0.388717 [THz] =      12.966188 [cm-1]
     freq (    7) =      36.653671 [THz] =    1222.634852 [cm-1]
     freq (    8) =      36.653671 [THz] =    1222.634852 [cm-1]
     freq (    9) =      36.653671 [THz] =    1222.634852 [cm-1]
     freq (   10) =      43.568855 [THz] =    1453.300562 [cm-1]
     freq (   11) =      43.568855 [THz] =    1453.300562 [cm-1]
     freq (   12) =      88.949635 [THz] =    2967.040438 [cm-1]
     freq (   13) =      92.668169 [THz] =    3091.077406 [cm-1]
     freq (   14) =      92.668169 [THz] =    3091.077406 [cm-1]
     freq (   15) =      92.668169 [THz] =    3091.077406 [cm-1]
 **************************************************************************

     Mode symmetry, T_d (-43m)  point group:

     freq (  1 -  3) =        -49.1  [cm-1]   --> T_1  G_25 P_5      
     freq (  4 -  6) =         13.0  [cm-1]   --> T_2  G_15 P_4   I+R
     freq (  7 -  9) =       1222.6  [cm-1]   --> T_2  G_15 P_4   I+R
     freq ( 10 - 11) =       1453.3  [cm-1]   --> E    G_12 P_3   R  
     freq ( 12 - 12) =       2967.0  [cm-1]   --> A_1  G_1  P_1   R  
     freq ( 13 - 15) =       3091.1  [cm-1]   --> T_2  G_15 P_4   I+R
 
     PHONON       :  2m 8.36s CPU     2m13.72s WALL

     INITIALIZATION: 
     phq_setup    :      0.06s CPU      0.06s WALL (       1 calls)
     phq_init     :     16.94s CPU     17.13s WALL (       1 calls)
 
     phq_init     :     16.94s CPU     17.13s WALL (       1 calls)
     set_drhoc    :      9.38s CPU      9.38s WALL (       3 calls)
     init_vloc    :      0.02s CPU      0.02s WALL (       1 calls)
     init_us_1    :      0.27s CPU      0.27s WALL (       1 calls)
     newd         :      0.07s CPU      0.11s WALL (       1 calls)
     dvanqq       :      2.92s CPU      2.93s WALL (       1 calls)
     drho         :      1.64s CPU      1.83s WALL (       1 calls)
 
     DYNAMICAL MATRIX:
     dynmat0      :      6.76s CPU      6.76s WALL (       1 calls)
     phqscf       :    110.18s CPU    115.22s WALL (       1 calls)
     dynmatrix    :      0.00s CPU      0.00s WALL (       1 calls)
 
     phqscf       :    110.18s CPU    115.22s WALL (       1 calls)
     solve_linter :    109.87s CPU    114.75s WALL (       6 calls)
     drhodv       :      0.29s CPU      0.29s WALL (       6 calls)
 
     dynmat0      :      6.76s CPU      6.76s WALL (       1 calls)
     dynmat_us    :      0.18s CPU      0.18s WALL (       1 calls)
     d2ionq       :      0.23s CPU      0.23s WALL (       1 calls)
     dynmatcc     :      6.35s CPU      6.35s WALL (       1 calls)
 
     dynmat_us    :      0.18s CPU      0.18s WALL (       1 calls)
     addusdynmat  :      0.00s CPU      0.00s WALL (       1 calls)
 
     phqscf       :    110.18s CPU    115.22s WALL (       1 calls)
     solve_linter :    109.87s CPU    114.75s WALL (       6 calls)
 
     solve_linter :    109.87s CPU    114.75s WALL (       6 calls)
     dvqpsi_us    :      0.15s CPU      0.15s WALL (      15 calls)
     ortho        :      0.06s CPU      0.06s WALL (      86 calls)
     cgsolve      :      8.40s CPU      8.47s WALL (      86 calls)
     incdrhoscf   :      0.60s CPU      0.62s WALL (      86 calls)
     addusddens   :      7.90s CPU      8.12s WALL (      41 calls)
     vpsifft      :      0.42s CPU      0.43s WALL (      71 calls)
     dv_of_drho   :      3.42s CPU      3.43s WALL (      86 calls)
     mix_pot      :      2.09s CPU      4.24s WALL (      35 calls)
     psymdvscf    :     69.23s CPU     69.53s WALL (      35 calls)
     newdq        :     10.67s CPU     10.77s WALL (      35 calls)
     adddvscf     :      0.03s CPU      0.02s WALL (      71 calls)
     drhodvus     :      0.23s CPU      0.36s WALL (       6 calls)
 
     dvqpsi_us    :      0.15s CPU      0.15s WALL (      15 calls)
     dvqpsi_us_on :      0.02s CPU      0.02s WALL (      15 calls)
 
     cgsolve      :      8.40s CPU      8.47s WALL (      86 calls)
     ch_psi       :      8.15s CPU      8.24s WALL (     977 calls)
 
     ch_psi       :      8.15s CPU      8.24s WALL (     977 calls)
     last         :      0.71s CPU      0.73s WALL (     977 calls)
 
     add_vuspsi   :      0.23s CPU      0.23s WALL (     977 calls)
 
     incdrhoscf   :      0.60s CPU      0.62s WALL (      86 calls)
     addusdbec    :      0.03s CPU      0.03s WALL (     101 calls)
 
     drhodvus     :      0.23s CPU      0.36s WALL (       6 calls)
 
      General routines
     calbec       :      0.58s CPU      0.55s WALL (    2211 calls)
     fft          :      8.95s CPU      9.02s WALL (     967 calls)
     ffts         :      0.37s CPU      0.37s WALL (     308 calls)
     fftw         :      5.46s CPU      5.54s WALL (    8660 calls)
     davcio       :      0.22s CPU      2.45s WALL (     664 calls)
     write_rec    :      0.07s CPU      1.78s WALL (      41 calls)
 
 
     PHONON       :  2m 8.36s CPU     2m13.72s WALL

 
   This run was terminated on:  11:33:28  25Aug2016            

=------------------------------------------------------------------------------=
   JOB DONE.
=------------------------------------------------------------------------------=
