
     Program PWSCF v.5.4.0 (svn rev. 12590M) starts on 21Jul2016 at 15:37: 0 

     This program is part of the open-source Quantum ESPRESSO suite
     for quantum simulation of materials; please cite
         "P. Giannozzi et al., J. Phys.:Condens. Matter 21 395502 (2009);
          URL http://www.quantum-espresso.org", 
     in publications or presentations arising from this work. More details at
     http://www.quantum-espresso.org/quote
 
           HOST :    x86_64-pc-linux-gnu
           ARCH :    x86_64
             CC :    icc
            CPP :    cpp
            F90 :    gfortran
            F77 :    gfortran
         DFLAGS :    -D__GFORTRAN -D__STD_F95 -D__DFTI -D__MPI -D__PARA -D__HDF5
      BLAS LIBS :    -lmkl_gf_lp64  -lmkl_sequential -lmkl_core
    LAPACK LIBS :    
       FFT LIBS :    
      MASS LIBS :    

     Parallel version (MPI), running on     2 processors
     R & G space division:  proc/nbgrp/npool/nimage =       2
     Waiting for input...
     Reading input from standard input
     Message from routine read_cards :
     DEPRECATED: no units specified in ATOMIC_POSITIONS card
     Message from routine read_cards :
     ATOMIC_POSITIONS: units set to alat

     Current dimensions of program PWSCF are:
     Max number of different atomic species (ntypx) = 10
     Max number of k-points (npk) =  40000
     Max angular momentum in pseudopotentials (lmaxx) =  3

     Subspace diagonalization in iterative solution of the eigenvalue problem:
     a serial algorithm will be used

     Found symmetry operation: I + ( -0.5000 -0.5000  0.0000)
     This is a supercell, fractional translations are disabled
 
     Parallelization info
     --------------------
     sticks:   dense  smooth     PW     G-vecs:    dense   smooth      PW
     Min         332     332    111                 6446     6446    1276
     Max         333     333    114                 6447     6447    1277
     Sum         665     665    225                12893    12893    2553
 


     bravais-lattice index     =            1
     lattice parameter (alat)  =      10.1800  a.u.
     unit-cell volume          =    1054.9778 (a.u.)^3
     number of atoms/cell      =            8
     number of atomic types    =            1
     number of electrons       =        32.00
     number of Kohn-Sham states=           16
     kinetic-energy cutoff     =      20.0000  Ry
     charge density cutoff     =      80.0000  Ry
     convergence threshold     =      1.0E-08
     mixing beta               =       0.5000
     number of iterations used =            8  plain     mixing
     Exchange-correlation      =  SLA  PW   PBE  PBE ( 1  4  3  4 0 0)
 
     Using Berry phase electric field
     In a.u.(Ry)  cartesian system of reference
        0.0000000000
        0.0000000000
        0.0000000000
     In a.u.(Ry)  crystal system of reference
        0.0000000000
        0.0000000000
        0.0000000000
     Number of iterative cycles:   1
 

     celldm(1)=  10.180000  celldm(2)=   0.000000  celldm(3)=   0.000000
     celldm(4)=   0.000000  celldm(5)=   0.000000  celldm(6)=   0.000000

     crystal axes: (cart. coord. in units of alat)
               a(1) = (   1.000000   0.000000   0.000000 )  
               a(2) = (   0.000000   1.000000   0.000000 )  
               a(3) = (   0.000000   0.000000   1.000000 )  

     reciprocal axes: (cart. coord. in units 2 pi/alat)
               b(1) = (  1.000000  0.000000  0.000000 )  
               b(2) = (  0.000000  1.000000  0.000000 )  
               b(3) = (  0.000000  0.000000  1.000000 )  


     PseudoPot. # 1 for Si read from file:
     /home/nvarini/espresso_hdf5/espresso/pseudo/Si.pbe-rrkj.UPF
     MD5 check sum: cf7ab5690cd9a85b22c4813f7e365554
     Pseudo is Norm-conserving, Zval =  4.0
     Generated by new atomic code, or converted to UPF format
     Using radial grid of  883 points,  3 beta functions with: 
                l(1) =   0
                l(2) =   0
                l(3) =   1

     atomic species   valence    mass     pseudopotential
        Si             4.00    28.08600     Si( 1.00)

     No symmetry found



   Cartesian axes

     site n.     atom                  positions (alat units)
         1           Si  tau(   1) = (  -0.1250000  -0.1250000  -0.1250000  )
         2           Si  tau(   2) = (   0.3750000   0.3750000  -0.1250000  )
         3           Si  tau(   3) = (   0.3750000  -0.1250000   0.3750000  )
         4           Si  tau(   4) = (  -0.1250000   0.3750000   0.3750000  )
         5           Si  tau(   5) = (   0.1250000   0.1250000   0.1250000  )
         6           Si  tau(   6) = (   0.6250000   0.6250000   0.1250000  )
         7           Si  tau(   7) = (   0.6250000   0.1250000   0.6250000  )
         8           Si  tau(   8) = (   0.1250000   0.6250000   0.6250000  )

     number of k points=    63
                       cart. coord. in units 2pi/alat
        k(    1) = (   0.0000000   0.0000000   0.0000000), wk =   0.0317460
        k(    2) = (   0.0000000   0.0000000   0.1428571), wk =   0.0317460
        k(    3) = (   0.0000000   0.0000000   0.2857143), wk =   0.0317460
        k(    4) = (   0.0000000   0.0000000   0.4285714), wk =   0.0317460
        k(    5) = (   0.0000000   0.0000000   0.5714286), wk =   0.0317460
        k(    6) = (   0.0000000   0.0000000   0.7142857), wk =   0.0317460
        k(    7) = (   0.0000000   0.0000000   0.8571429), wk =   0.0317460
        k(    8) = (   0.0000000   0.3333333   0.0000000), wk =   0.0317460
        k(    9) = (   0.0000000   0.3333333   0.1428571), wk =   0.0317460
        k(   10) = (   0.0000000   0.3333333   0.2857143), wk =   0.0317460
        k(   11) = (   0.0000000   0.3333333   0.4285714), wk =   0.0317460
        k(   12) = (   0.0000000   0.3333333   0.5714286), wk =   0.0317460
        k(   13) = (   0.0000000   0.3333333   0.7142857), wk =   0.0317460
        k(   14) = (   0.0000000   0.3333333   0.8571429), wk =   0.0317460
        k(   15) = (   0.0000000   0.6666667   0.0000000), wk =   0.0317460
        k(   16) = (   0.0000000   0.6666667   0.1428571), wk =   0.0317460
        k(   17) = (   0.0000000   0.6666667   0.2857143), wk =   0.0317460
        k(   18) = (   0.0000000   0.6666667   0.4285714), wk =   0.0317460
        k(   19) = (   0.0000000   0.6666667   0.5714286), wk =   0.0317460
        k(   20) = (   0.0000000   0.6666667   0.7142857), wk =   0.0317460
        k(   21) = (   0.0000000   0.6666667   0.8571429), wk =   0.0317460
        k(   22) = (   0.3333333   0.0000000   0.0000000), wk =   0.0317460
        k(   23) = (   0.3333333   0.0000000   0.1428571), wk =   0.0317460
        k(   24) = (   0.3333333   0.0000000   0.2857143), wk =   0.0317460
        k(   25) = (   0.3333333   0.0000000   0.4285714), wk =   0.0317460
        k(   26) = (   0.3333333   0.0000000   0.5714286), wk =   0.0317460
        k(   27) = (   0.3333333   0.0000000   0.7142857), wk =   0.0317460
        k(   28) = (   0.3333333   0.0000000   0.8571429), wk =   0.0317460
        k(   29) = (   0.3333333   0.3333333   0.0000000), wk =   0.0317460
        k(   30) = (   0.3333333   0.3333333   0.1428571), wk =   0.0317460
        k(   31) = (   0.3333333   0.3333333   0.2857143), wk =   0.0317460
        k(   32) = (   0.3333333   0.3333333   0.4285714), wk =   0.0317460
        k(   33) = (   0.3333333   0.3333333   0.5714286), wk =   0.0317460
        k(   34) = (   0.3333333   0.3333333   0.7142857), wk =   0.0317460
        k(   35) = (   0.3333333   0.3333333   0.8571429), wk =   0.0317460
        k(   36) = (   0.3333333   0.6666667   0.0000000), wk =   0.0317460
        k(   37) = (   0.3333333   0.6666667   0.1428571), wk =   0.0317460
        k(   38) = (   0.3333333   0.6666667   0.2857143), wk =   0.0317460
        k(   39) = (   0.3333333   0.6666667   0.4285714), wk =   0.0317460
        k(   40) = (   0.3333333   0.6666667   0.5714286), wk =   0.0317460
        k(   41) = (   0.3333333   0.6666667   0.7142857), wk =   0.0317460
        k(   42) = (   0.3333333   0.6666667   0.8571429), wk =   0.0317460
        k(   43) = (   0.6666667   0.0000000   0.0000000), wk =   0.0317460
        k(   44) = (   0.6666667   0.0000000   0.1428571), wk =   0.0317460
        k(   45) = (   0.6666667   0.0000000   0.2857143), wk =   0.0317460
        k(   46) = (   0.6666667   0.0000000   0.4285714), wk =   0.0317460
        k(   47) = (   0.6666667   0.0000000   0.5714286), wk =   0.0317460
        k(   48) = (   0.6666667   0.0000000   0.7142857), wk =   0.0317460
        k(   49) = (   0.6666667   0.0000000   0.8571429), wk =   0.0317460
        k(   50) = (   0.6666667   0.3333333   0.0000000), wk =   0.0317460
        k(   51) = (   0.6666667   0.3333333   0.1428571), wk =   0.0317460
        k(   52) = (   0.6666667   0.3333333   0.2857143), wk =   0.0317460
        k(   53) = (   0.6666667   0.3333333   0.4285714), wk =   0.0317460
        k(   54) = (   0.6666667   0.3333333   0.5714286), wk =   0.0317460
        k(   55) = (   0.6666667   0.3333333   0.7142857), wk =   0.0317460
        k(   56) = (   0.6666667   0.3333333   0.8571429), wk =   0.0317460
        k(   57) = (   0.6666667   0.6666667   0.0000000), wk =   0.0317460
        k(   58) = (   0.6666667   0.6666667   0.1428571), wk =   0.0317460
        k(   59) = (   0.6666667   0.6666667   0.2857143), wk =   0.0317460
        k(   60) = (   0.6666667   0.6666667   0.4285714), wk =   0.0317460
        k(   61) = (   0.6666667   0.6666667   0.5714286), wk =   0.0317460
        k(   62) = (   0.6666667   0.6666667   0.7142857), wk =   0.0317460
        k(   63) = (   0.6666667   0.6666667   0.8571429), wk =   0.0317460

     Dense  grid:    12893 G-vectors     FFT dimensions: (  30,  30,  30)

     Largest allocated arrays     est. size (Mb)     dimensions
        Kohn-Sham Wavefunctions         0.20 Mb     (     808,   16)
        NL pseudopotentials             0.49 Mb     (     808,   40)
        Each V/rho on FFT grid          0.21 Mb     (   13500)
        Each G-vector array             0.05 Mb     (    6446)
        G-vector shells                 0.00 Mb     (     178)
     Largest temporary arrays     est. size (Mb)     dimensions
        Auxiliary wavefunctions         0.79 Mb     (     808,   64)
        Each subspace H/S matrix        0.06 Mb     (      64,   64)
        Each <psi_i|beta_j> matrix      0.01 Mb     (      40,   16)
        Arrays for rho mixing           1.65 Mb     (   13500,    8)

     Initial potential from superposition of free atoms

     starting charge   31.99557, renormalised to   32.00000
     Starting wfc are random

     total cpu time spent up to now is        0.6 secs

     per-process dynamical memory:    18.4 Mb

     Self-consistent Calculation

     iteration #  1     ecut=    20.00 Ry     beta=0.50
     Davidson diagonalization with overlap
     ethr =  1.00E-02,  avg # of iterations =  7.6

     Threshold (ethr) on eigenvalues was too large:
     Diagonalizing with lowered threshold

     Davidson diagonalization with overlap
     ethr =  7.62E-04,  avg # of iterations =  1.8
 
     Expectation value of exp(iGx):
 (9.817199617045359E-002,-2.040897456494920E-005)   1.00000000000000     
     Electronic Dipole per cell (Ry a.u.) -9.526787091736137E-004
     Ionic Dipole per cell (Ry a.u.)   115.173552519665     
 
     Expectation value of exp(iGx):
 (9.819394621302338E-002,-3.035499233786256E-004)   1.00000000000000     
     Electronic Dipole per cell (Ry a.u.) -1.416631627389467E-002
     Ionic Dipole per cell (Ry a.u.)   115.173552519665     
 
     Expectation value of exp(iGx): (0.347942213351621,7.891528962991816E-004)
   1.00000000000000     
     Electronic Dipole per cell (Ry a.u.)  1.039360460796995E-002
     Ionic Dipole per cell (Ry a.u.)   115.173552519665     
Electronic Dipole on Cartesian axes
           1 -9.526787091736137E-004
           2 -1.416631627389467E-002
           3  1.039360460796995E-002
Ionic Dipole on Cartesian axes
           1   115.173552519665     
           2   115.173552519665     
           3   115.173552519665     

     total cpu time spent up to now is        6.7 secs

     total energy              =     -62.94984469 Ry
     Harris-Foulkes estimate   =     -62.99982121 Ry
     estimated scf accuracy    <       0.24590558 Ry

     iteration #  2     ecut=    20.00 Ry     beta=0.50
     Davidson diagonalization with overlap
     ethr =  7.68E-04,  avg # of iterations =  1.0
 
     Expectation value of exp(iGx):
 (9.539696125207185E-002,1.674310317280779E-005)   1.00000000000000     
     Electronic Dipole per cell (Ry a.u.)  8.042930409973931E-004
     Ionic Dipole per cell (Ry a.u.)   115.173552519665     
 
     Expectation value of exp(iGx):
 (9.540786224946234E-002,-2.334895952217299E-004)   1.00000000000000     
     Electronic Dipole per cell (Ry a.u.) -1.121489994760243E-002
     Ionic Dipole per cell (Ry a.u.)   115.173552519665     
 
     Expectation value of exp(iGx): (0.345308379230437,3.916296122442101E-004)
   1.00000000000000     
     Electronic Dipole per cell (Ry a.u.)  5.197339928902545E-003
     Ionic Dipole per cell (Ry a.u.)   115.173552519665     
Electronic Dipole on Cartesian axes
           1  8.042930409973931E-004
           2 -1.121489994760243E-002
           3  5.197339928902545E-003
Ionic Dipole on Cartesian axes
           1   115.173552519665     
           2   115.173552519665     
           3   115.173552519665     

     total cpu time spent up to now is        8.4 secs

     total energy              =     -62.94854653 Ry
     Harris-Foulkes estimate   =     -62.95600363 Ry
     estimated scf accuracy    <       0.04561369 Ry

     iteration #  3     ecut=    20.00 Ry     beta=0.50
     Davidson diagonalization with overlap
     ethr =  1.43E-04,  avg # of iterations =  2.0
 
     Expectation value of exp(iGx):
 (9.106795132009070E-002,5.670305462142608E-006)   1.00000000000000     
     Electronic Dipole per cell (Ry a.u.)  2.853341750069743E-004
     Ionic Dipole per cell (Ry a.u.)   115.173552519665     
 
     Expectation value of exp(iGx):
 (9.096474907836352E-002,-1.369499835226618E-004)   1.00000000000000     
     Electronic Dipole per cell (Ry a.u.) -6.899242870742450E-003
     Ionic Dipole per cell (Ry a.u.)   115.173552519665     
 
     Expectation value of exp(iGx): (0.338747042499378,2.831368121658633E-004)
   1.00000000000000     
     Electronic Dipole per cell (Ry a.u.)  3.830307385159181E-003
     Ionic Dipole per cell (Ry a.u.)   115.173552519665     
Electronic Dipole on Cartesian axes
           1  2.853341750069743E-004
           2 -6.899242870742450E-003
           3  3.830307385159181E-003
Ionic Dipole on Cartesian axes
           1   115.173552519665     
           2   115.173552519665     
           3   115.173552519665     

     total cpu time spent up to now is       10.3 secs

     total energy              =     -62.95267044 Ry
     Harris-Foulkes estimate   =     -62.95286464 Ry
     estimated scf accuracy    <       0.00085415 Ry

     iteration #  4     ecut=    20.00 Ry     beta=0.50
     Davidson diagonalization with overlap
     ethr =  2.67E-06,  avg # of iterations =  4.0
 
     Expectation value of exp(iGx):
 (9.007782114344556E-002,5.650153933758777E-006)   1.00000000000000     
     Electronic Dipole per cell (Ry a.u.)  2.874453648407379E-004
     Ionic Dipole per cell (Ry a.u.)   115.173552519665     
 
     Expectation value of exp(iGx):
 (9.007992288164950E-002,-1.471340781707706E-005)   1.00000000000000     
     Electronic Dipole per cell (Ry a.u.) -7.485109640920366E-004
     Ionic Dipole per cell (Ry a.u.)   115.173552519665     
 
     Expectation value of exp(iGx): (0.337105896904492,3.880530762872727E-005)
   1.00000000000000     
     Electronic Dipole per cell (Ry a.u.)  5.275184846978500E-004
     Ionic Dipole per cell (Ry a.u.)   115.173552519665     
Electronic Dipole on Cartesian axes
           1  2.874453648407379E-004
           2 -7.485109640920366E-004
           3  5.275184846978500E-004
Ionic Dipole on Cartesian axes
           1   115.173552519665     
           2   115.173552519665     
           3   115.173552519665     

     total cpu time spent up to now is       13.2 secs

     total energy              =     -62.95344380 Ry
     Harris-Foulkes estimate   =     -62.95348996 Ry
     estimated scf accuracy    <       0.00011386 Ry

     iteration #  5     ecut=    20.00 Ry     beta=0.50
     Davidson diagonalization with overlap
     ethr =  3.56E-07,  avg # of iterations =  2.1
 
     Expectation value of exp(iGx):
 (8.975298771293184E-002,3.563096217162631E-006)   1.00000000000000     
     Electronic Dipole per cell (Ry a.u.)  1.819246460610791E-004
     Ionic Dipole per cell (Ry a.u.)   115.173552519665     
 
     Expectation value of exp(iGx):
 (8.974963214200900E-002,-4.898216049119269E-006)   1.00000000000000     
     Electronic Dipole per cell (Ry a.u.) -2.501025745959356E-004
     Ionic Dipole per cell (Ry a.u.)   115.173552519665     
 
     Expectation value of exp(iGx): (0.336502909110022,-6.820492233456914E-006)
   1.00000000000000     
     Electronic Dipole per cell (Ry a.u.) -9.288376236682504E-005
     Ionic Dipole per cell (Ry a.u.)   115.173552519665     
Electronic Dipole on Cartesian axes
           1  1.819246460610791E-004
           2 -2.501025745959356E-004
           3 -9.288376236682504E-005
Ionic Dipole on Cartesian axes
           1   115.173552519665     
           2   115.173552519665     
           3   115.173552519665     

     total cpu time spent up to now is       15.3 secs

     total energy              =     -62.95346026 Ry
     Harris-Foulkes estimate   =     -62.95346110 Ry
     estimated scf accuracy    <       0.00000351 Ry

     iteration #  6     ecut=    20.00 Ry     beta=0.50
     Davidson diagonalization with overlap
     ethr =  1.10E-08,  avg # of iterations =  3.1
 
     Expectation value of exp(iGx):
 (8.976251502821517E-002,8.190452958194333E-007)   1.00000000000000     
     Electronic Dipole per cell (Ry a.u.)  4.181439437298128E-005
     Ionic Dipole per cell (Ry a.u.)   115.173552519665     
 
     Expectation value of exp(iGx):
 (8.976306622368309E-002,-1.098954389591473E-006)   1.00000000000000     
     Electronic Dipole per cell (Ry a.u.) -5.610413771513520E-005
     Ionic Dipole per cell (Ry a.u.)   115.173552519665     
 
     Expectation value of exp(iGx): (0.336490542658115,4.161156161780170E-006)
   1.00000000000000     
     Electronic Dipole per cell (Ry a.u.)  5.667010992886062E-005
     Ionic Dipole per cell (Ry a.u.)   115.173552519665     
Electronic Dipole on Cartesian axes
           1  4.181439437298128E-005
           2 -5.610413771513520E-005
           3  5.667010992886062E-005
Ionic Dipole on Cartesian axes
           1   115.173552519665     
           2   115.173552519665     
           3   115.173552519665     

     total cpu time spent up to now is       17.8 secs

     total energy              =     -62.95346149 Ry
     Harris-Foulkes estimate   =     -62.95346154 Ry
     estimated scf accuracy    <       0.00000022 Ry

     iteration #  7     ecut=    20.00 Ry     beta=0.50
     Davidson diagonalization with overlap
     ethr =  6.83E-10,  avg # of iterations =  3.4
 
     Expectation value of exp(iGx):
 (8.974707534587306E-002,-2.607492911742884E-007)   1.00000000000000     
     Electronic Dipole per cell (Ry a.u.) -1.331422018443523E-005
     Ionic Dipole per cell (Ry a.u.)   115.173552519665     
 
     Expectation value of exp(iGx):
 (8.974698938494986E-002,-3.457444122720758E-007)   1.00000000000000     
     Electronic Dipole per cell (Ry a.u.) -1.765420577332858E-005
     Ionic Dipole per cell (Ry a.u.)   115.173552519665     
 
     Expectation value of exp(iGx): (0.336450465125055,1.372205037400761E-006)
   1.00000000000000     
     Electronic Dipole per cell (Ry a.u.)  1.869006360754438E-005
     Ionic Dipole per cell (Ry a.u.)   115.173552519665     
Electronic Dipole on Cartesian axes
           1 -1.331422018443523E-005
           2 -1.765420577332858E-005
           3  1.869006360754438E-005
Ionic Dipole on Cartesian axes
           1   115.173552519665     
           2   115.173552519665     
           3   115.173552519665     

     total cpu time spent up to now is       20.2 secs

     total energy              =     -62.95346155 Ry
     Harris-Foulkes estimate   =     -62.95346155 Ry
     estimated scf accuracy    <       0.00000002 Ry

     iteration #  8     ecut=    20.00 Ry     beta=0.50
     Davidson diagonalization with overlap
     ethr =  5.48E-11,  avg # of iterations =  2.3
 
     Expectation value of exp(iGx):
 (8.974812311376440E-002,-6.156578926045502E-008)   1.00000000000000     
     Electronic Dipole per cell (Ry a.u.) -3.143597824287192E-006
     Ionic Dipole per cell (Ry a.u.)   115.173552519665     
 
     Expectation value of exp(iGx):
 (8.974810257414369E-002,-1.660230465931270E-007)   1.00000000000000     
     Electronic Dipole per cell (Ry a.u.) -8.477269824101807E-006
     Ionic Dipole per cell (Ry a.u.)   115.173552519665     
 
     Expectation value of exp(iGx): (0.336451623320480,1.034094546294146E-006)
   1.00000000000000     
     Electronic Dipole per cell (Ry a.u.)  1.408479475571641E-005
     Ionic Dipole per cell (Ry a.u.)   115.173552519665     
Electronic Dipole on Cartesian axes
           1 -3.143597824287192E-006
           2 -8.477269824101807E-006
           3  1.408479475571641E-005
Ionic Dipole on Cartesian axes
           1   115.173552519665     
           2   115.173552519665     
           3   115.173552519665     

     total cpu time spent up to now is       22.3 secs

     End of self-consistent calculation

          k = 0.0000 0.0000 0.0000 (  1575 PWs)   bands (ev):

    -5.5813  -1.3520  -1.3520  -1.3520  -1.3520  -1.3520  -1.3520   3.5786
     3.5786   3.5786   3.5787   3.5787   3.5787   6.4863   6.4866   6.4867

          k = 0.0000 0.0000 0.1429 (  1599 PWs)   bands (ev):

    -5.4902  -2.4216  -1.3212  -1.3212  -1.3212  -1.3212  -0.1750   3.3332
     3.3332   3.3332   3.3332   3.6606   3.6607   5.9838   6.1468   6.1469

          k = 0.0000 0.0000 0.2857 (  1582 PWs)   bands (ev):

    -5.2179  -3.3587  -1.2478  -1.2478  -1.2477  -1.2477   1.0779   2.8851
     2.8851   2.8851   2.8851   3.9046   3.9047   4.9088   5.4914   5.4915

          k = 0.0000 0.0000 0.4286 (  1602 PWs)   bands (ev):

    -4.7676  -4.1451  -1.1838  -1.1838  -1.1838  -1.1838   2.3699   2.5823
     2.5823   2.5823   2.5823   3.6633   4.3034   4.3034   4.8439   4.8440

          k = 0.0000 0.0000 0.5714 (  1602 PWs)   bands (ev):

    -4.7676  -4.1451  -1.1838  -1.1838  -1.1838  -1.1838   2.3699   2.5823
     2.5823   2.5823   2.5823   3.6633   4.3034   4.3034   4.8439   4.8440

          k = 0.0000 0.0000 0.7143 (  1582 PWs)   bands (ev):

    -5.2179  -3.3587  -1.2478  -1.2478  -1.2477  -1.2477   1.0779   2.8851
     2.8851   2.8851   2.8851   3.9046   3.9047   4.9088   5.4914   5.4915

          k = 0.0000 0.0000 0.8571 (  1599 PWs)   bands (ev):

    -5.4902  -2.4216  -1.3212  -1.3212  -1.3212  -1.3212  -0.1750   3.3332
     3.3332   3.3332   3.3332   3.6606   3.6607   5.9838   6.1468   6.1469

          k = 0.0000 0.3333 0.0000 (  1594 PWs)   bands (ev):

    -5.0874  -3.6383  -1.2222  -1.2222  -1.2222  -1.2222   1.5060   2.7569
     2.7569   2.7569   2.7569   4.0206   4.0206   4.5037   5.2673   5.2674

          k = 0.0000 0.3333 0.1429 (  1586 PWs)   bands (ev):

    -4.9994  -3.5635  -2.1368  -1.6219  -0.8458  -0.3007   1.3724   2.1960
     2.6306   3.1660   3.5244   3.6877   3.9257   4.0205   4.9208   5.6972

          k = 0.0000 0.3333 0.2857 (  1602 PWs)   bands (ev):

    -4.7372  -3.3442  -2.9830  -2.0764  -0.4414   0.5748   1.0091   1.9685
     2.7518   3.0508   3.0713   3.8605   4.0921   4.2017   4.2509   5.9689

          k = 0.0000 0.3333 0.4286 (  1598 PWs)   bands (ev):

    -4.3059  -3.7155  -2.9972  -2.5563   0.0185   0.5219   1.4024   2.0791
     2.2237   2.4676   3.0863   3.6015   4.2731   4.4200   4.7475   5.5849

          k = 0.0000 0.3333 0.5714 (  1598 PWs)   bands (ev):

    -4.3059  -3.7155  -2.9972  -2.5562   0.0185   0.5219   1.4025   2.0792
     2.2237   2.4675   3.0863   3.6015   4.2731   4.4199   4.7475   5.5849

          k = 0.0000 0.3333 0.7143 (  1602 PWs)   bands (ev):

    -4.7372  -3.3442  -2.9830  -2.0763  -0.4415   0.5749   1.0091   1.9685
     2.7518   3.0508   3.0712   3.8606   4.0921   4.2017   4.2509   5.9688

          k = 0.0000 0.3333 0.8571 (  1586 PWs)   bands (ev):

    -4.9994  -3.5635  -2.1368  -1.6218  -0.8458  -0.3006   1.3724   2.1960
     2.6306   3.1660   3.5244   3.6877   3.9256   4.0205   4.9208   5.6972

          k = 0.0000 0.6667 0.0000 (  1594 PWs)   bands (ev):

    -5.0874  -3.6383  -1.2222  -1.2222  -1.2222  -1.2222   1.5060   2.7569
     2.7569   2.7569   2.7569   4.0206   4.0206   4.5037   5.2673   5.2674

          k = 0.0000 0.6667 0.1429 (  1586 PWs)   bands (ev):

    -4.9994  -3.5635  -2.1368  -1.6218  -0.8458  -0.3006   1.3724   2.1960
     2.6306   3.1660   3.5244   3.6877   3.9256   4.0205   4.9208   5.6972

          k = 0.0000 0.6667 0.2857 (  1602 PWs)   bands (ev):

    -4.7372  -3.3442  -2.9830  -2.0763  -0.4415   0.5749   1.0091   1.9685
     2.7518   3.0508   3.0712   3.8606   4.0921   4.2017   4.2509   5.9688

          k = 0.0000 0.6667 0.4286 (  1598 PWs)   bands (ev):

    -4.3059  -3.7155  -2.9972  -2.5562   0.0185   0.5219   1.4025   2.0792
     2.2237   2.4675   3.0863   3.6015   4.2731   4.4199   4.7475   5.5849

          k = 0.0000 0.6667 0.5714 (  1598 PWs)   bands (ev):

    -4.3059  -3.7155  -2.9972  -2.5563   0.0185   0.5219   1.4024   2.0791
     2.2237   2.4676   3.0863   3.6015   4.2731   4.4200   4.7475   5.5849

          k = 0.0000 0.6667 0.7143 (  1602 PWs)   bands (ev):

    -4.7372  -3.3442  -2.9830  -2.0764  -0.4414   0.5748   1.0091   1.9685
     2.7518   3.0508   3.0713   3.8605   4.0921   4.2017   4.2509   5.9689

          k = 0.0000 0.6667 0.8571 (  1586 PWs)   bands (ev):

    -4.9994  -3.5635  -2.1368  -1.6219  -0.8458  -0.3007   1.3724   2.1960
     2.6306   3.1660   3.5244   3.6877   3.9257   4.0205   4.9208   5.6972

          k = 0.3333 0.0000 0.0000 (  1594 PWs)   bands (ev):

    -5.0874  -3.6383  -1.2222  -1.2222  -1.2222  -1.2222   1.5060   2.7569
     2.7569   2.7569   2.7569   4.0206   4.0206   4.5037   5.2673   5.2674

          k = 0.3333 0.0000 0.1429 (  1586 PWs)   bands (ev):

    -4.9994  -3.5635  -2.1368  -1.6219  -0.8458  -0.3007   1.3724   2.1960
     2.6306   3.1660   3.5244   3.6877   3.9257   4.0205   4.9208   5.6972

          k = 0.3333 0.0000 0.2857 (  1602 PWs)   bands (ev):

    -4.7372  -3.3442  -2.9830  -2.0764  -0.4414   0.5748   1.0091   1.9685
     2.7518   3.0508   3.0713   3.8605   4.0921   4.2017   4.2509   5.9689

          k = 0.3333 0.0000 0.4286 (  1598 PWs)   bands (ev):

    -4.3059  -3.7155  -2.9972  -2.5563   0.0185   0.5219   1.4024   2.0791
     2.2237   2.4676   3.0863   3.6015   4.2731   4.4200   4.7475   5.5849

          k = 0.3333 0.0000 0.5714 (  1598 PWs)   bands (ev):

    -4.3059  -3.7155  -2.9972  -2.5562   0.0185   0.5219   1.4025   2.0792
     2.2237   2.4675   3.0863   3.6015   4.2731   4.4199   4.7475   5.5849

          k = 0.3333 0.0000 0.7143 (  1602 PWs)   bands (ev):

    -4.7372  -3.3442  -2.9830  -2.0763  -0.4415   0.5749   1.0091   1.9685
     2.7518   3.0508   3.0712   3.8606   4.0921   4.2017   4.2509   5.9688

          k = 0.3333 0.0000 0.8571 (  1586 PWs)   bands (ev):

    -4.9994  -3.5635  -2.1368  -1.6218  -0.8458  -0.3006   1.3724   2.1960
     2.6306   3.1660   3.5244   3.6877   3.9256   4.0205   4.9208   5.6972

          k = 0.3333 0.3333 0.0000 (  1602 PWs)   bands (ev):

    -4.6118  -3.2415  -3.2414  -2.2365  -0.2946   0.8544   0.8544   1.9700
     2.7856   2.8411   2.8411   4.0240   4.1433   4.1433   4.3345   5.9166

          k = 0.3333 0.3333 0.1429 (  1596 PWs)   bands (ev):

    -4.5298  -3.1931  -3.1931  -2.4030  -0.3441   0.5325   0.5325   2.2094
     2.3853   3.1359   3.1359   4.2716   4.2716   4.4000   4.6292   5.8276

          k = 0.3333 0.3333 0.2857 (  1598 PWs)   bands (ev):

    -4.2876  -3.0718  -3.0718  -2.8468  -0.2597  -0.0167  -0.0167   1.3740
     3.3213   3.5703   3.5703   4.5837   4.5837   4.5899   5.3737   5.5797

          k = 0.3333 0.3333 0.4286 (  1592 PWs)   bands (ev):

    -3.8988  -3.3947  -2.9568  -2.9568  -0.3882  -0.3882   0.0833   0.6431
     3.8275   3.8275   4.4023   4.7877   4.7877   4.8828   5.2361   5.2921

          k = 0.3333 0.3333 0.5714 (  1592 PWs)   bands (ev):

    -3.8988  -3.3947  -2.9568  -2.9568  -0.3882  -0.3882   0.0833   0.6431
     3.8275   3.8275   4.4023   4.7877   4.7877   4.8828   5.2361   5.2921

          k = 0.3333 0.3333 0.7143 (  1598 PWs)   bands (ev):

    -4.2876  -3.0718  -3.0718  -2.8469  -0.2597  -0.0167  -0.0167   1.3740
     3.3213   3.5703   3.5703   4.5836   4.5836   4.5899   5.3737   5.5797

          k = 0.3333 0.3333 0.8571 (  1596 PWs)   bands (ev):

    -4.5298  -3.1931  -3.1931  -2.4030  -0.3441   0.5325   0.5325   2.2094
     2.3853   3.1359   3.1359   4.2716   4.2716   4.4000   4.6292   5.8276

          k = 0.3333 0.6667 0.0000 (  1602 PWs)   bands (ev):

    -4.6118  -3.2415  -3.2415  -2.2365  -0.2946   0.8544   0.8544   1.9701
     2.7856   2.8411   2.8411   4.0240   4.1433   4.1434   4.3345   5.9166

          k = 0.3333 0.6667 0.1429 (  1596 PWs)   bands (ev):

    -4.5298  -3.1931  -3.1931  -2.4029  -0.3441   0.5325   0.5325   2.2094
     2.3854   3.1359   3.1359   4.2716   4.2716   4.3999   4.6292   5.8276

          k = 0.3333 0.6667 0.2857 (  1598 PWs)   bands (ev):

    -4.2876  -3.0718  -3.0718  -2.8468  -0.2597  -0.0167  -0.0167   1.3739
     3.3213   3.5703   3.5703   4.5837   4.5837   4.5899   5.3737   5.5797

          k = 0.3333 0.6667 0.4286 (  1592 PWs)   bands (ev):

    -3.8988  -3.3947  -2.9568  -2.9568  -0.3882  -0.3881   0.0833   0.6431
     3.8275   3.8275   4.4023   4.7876   4.7877   4.8828   5.2361   5.2921

          k = 0.3333 0.6667 0.5714 (  1592 PWs)   bands (ev):

    -3.8988  -3.3947  -2.9568  -2.9568  -0.3882  -0.3881   0.0833   0.6431
     3.8275   3.8275   4.4023   4.7876   4.7877   4.8828   5.2361   5.2921

          k = 0.3333 0.6667 0.7143 (  1598 PWs)   bands (ev):

    -4.2876  -3.0718  -3.0718  -2.8468  -0.2597  -0.0167  -0.0167   1.3739
     3.3213   3.5703   3.5703   4.5836   4.5837   4.5899   5.3737   5.5797

          k = 0.3333 0.6667 0.8571 (  1596 PWs)   bands (ev):

    -4.5298  -3.1931  -3.1931  -2.4029  -0.3441   0.5325   0.5325   2.2094
     2.3854   3.1359   3.1359   4.2716   4.2716   4.3999   4.6292   5.8276

          k = 0.6667 0.0000 0.0000 (  1594 PWs)   bands (ev):

    -5.0874  -3.6383  -1.2222  -1.2222  -1.2222  -1.2222   1.5060   2.7569
     2.7569   2.7569   2.7569   4.0206   4.0206   4.5037   5.2673   5.2674

          k = 0.6667 0.0000 0.1429 (  1586 PWs)   bands (ev):

    -4.9994  -3.5635  -2.1368  -1.6218  -0.8458  -0.3006   1.3724   2.1960
     2.6306   3.1660   3.5244   3.6877   3.9256   4.0205   4.9208   5.6972

          k = 0.6667 0.0000 0.2857 (  1602 PWs)   bands (ev):

    -4.7372  -3.3442  -2.9830  -2.0763  -0.4415   0.5749   1.0091   1.9685
     2.7518   3.0508   3.0712   3.8606   4.0921   4.2017   4.2509   5.9688

          k = 0.6667 0.0000 0.4286 (  1598 PWs)   bands (ev):

    -4.3059  -3.7155  -2.9972  -2.5562   0.0185   0.5219   1.4025   2.0792
     2.2237   2.4675   3.0863   3.6015   4.2731   4.4199   4.7475   5.5849

          k = 0.6667 0.0000 0.5714 (  1598 PWs)   bands (ev):

    -4.3059  -3.7155  -2.9972  -2.5563   0.0185   0.5219   1.4024   2.0791
     2.2237   2.4676   3.0863   3.6015   4.2731   4.4200   4.7475   5.5849

          k = 0.6667 0.0000 0.7143 (  1602 PWs)   bands (ev):

    -4.7372  -3.3442  -2.9830  -2.0764  -0.4414   0.5748   1.0091   1.9685
     2.7518   3.0508   3.0713   3.8605   4.0921   4.2017   4.2509   5.9689

          k = 0.6667 0.0000 0.8571 (  1586 PWs)   bands (ev):

    -4.9994  -3.5635  -2.1368  -1.6219  -0.8458  -0.3007   1.3724   2.1960
     2.6306   3.1660   3.5244   3.6877   3.9257   4.0205   4.9208   5.6972

          k = 0.6667 0.3333 0.0000 (  1602 PWs)   bands (ev):

    -4.6118  -3.2415  -3.2415  -2.2365  -0.2946   0.8544   0.8544   1.9701
     2.7856   2.8411   2.8411   4.0240   4.1433   4.1434   4.3345   5.9166

          k = 0.6667 0.3333 0.1429 (  1596 PWs)   bands (ev):

    -4.5298  -3.1931  -3.1931  -2.4029  -0.3441   0.5325   0.5325   2.2094
     2.3854   3.1359   3.1359   4.2716   4.2716   4.3999   4.6292   5.8276

          k = 0.6667 0.3333 0.2857 (  1598 PWs)   bands (ev):

    -4.2876  -3.0718  -3.0718  -2.8468  -0.2597  -0.0167  -0.0167   1.3739
     3.3213   3.5703   3.5703   4.5836   4.5837   4.5899   5.3737   5.5797

          k = 0.6667 0.3333 0.4286 (  1592 PWs)   bands (ev):

    -3.8988  -3.3947  -2.9568  -2.9568  -0.3882  -0.3881   0.0833   0.6431
     3.8275   3.8275   4.4023   4.7876   4.7877   4.8828   5.2361   5.2921

          k = 0.6667 0.3333 0.5714 (  1592 PWs)   bands (ev):

    -3.8988  -3.3947  -2.9568  -2.9568  -0.3882  -0.3881   0.0833   0.6431
     3.8275   3.8275   4.4023   4.7876   4.7877   4.8828   5.2361   5.2921

          k = 0.6667 0.3333 0.7143 (  1598 PWs)   bands (ev):

    -4.2876  -3.0718  -3.0718  -2.8468  -0.2597  -0.0167  -0.0167   1.3739
     3.3213   3.5703   3.5703   4.5837   4.5837   4.5899   5.3737   5.5797

          k = 0.6667 0.3333 0.8571 (  1596 PWs)   bands (ev):

    -4.5298  -3.1931  -3.1931  -2.4029  -0.3441   0.5325   0.5325   2.2094
     2.3854   3.1359   3.1359   4.2716   4.2716   4.3999   4.6292   5.8276

          k = 0.6667 0.6667 0.0000 (  1602 PWs)   bands (ev):

    -4.6118  -3.2415  -3.2414  -2.2365  -0.2946   0.8544   0.8544   1.9700
     2.7856   2.8411   2.8411   4.0240   4.1433   4.1433   4.3345   5.9166

          k = 0.6667 0.6667 0.1429 (  1596 PWs)   bands (ev):

    -4.5298  -3.1931  -3.1931  -2.4030  -0.3441   0.5325   0.5325   2.2094
     2.3853   3.1359   3.1359   4.2716   4.2716   4.4000   4.6292   5.8276

          k = 0.6667 0.6667 0.2857 (  1598 PWs)   bands (ev):

    -4.2876  -3.0718  -3.0718  -2.8469  -0.2597  -0.0167  -0.0167   1.3740
     3.3213   3.5703   3.5703   4.5836   4.5836   4.5899   5.3737   5.5797

          k = 0.6667 0.6667 0.4286 (  1592 PWs)   bands (ev):

    -3.8988  -3.3947  -2.9568  -2.9568  -0.3882  -0.3882   0.0833   0.6431
     3.8275   3.8275   4.4023   4.7877   4.7877   4.8828   5.2361   5.2921

          k = 0.6667 0.6667 0.5714 (  1592 PWs)   bands (ev):

    -3.8988  -3.3947  -2.9568  -2.9568  -0.3882  -0.3882   0.0833   0.6431
     3.8275   3.8275   4.4023   4.7877   4.7877   4.8828   5.2361   5.2921

          k = 0.6667 0.6667 0.7143 (  1598 PWs)   bands (ev):

    -4.2876  -3.0718  -3.0718  -2.8468  -0.2597  -0.0167  -0.0167   1.3740
     3.3213   3.5703   3.5703   4.5837   4.5837   4.5899   5.3737   5.5797

          k = 0.6667 0.6667 0.8571 (  1596 PWs)   bands (ev):

    -4.5298  -3.1931  -3.1931  -2.4030  -0.3441   0.5325   0.5325   2.2094
     2.3853   3.1359   3.1359   4.2716   4.2716   4.4000   4.6292   5.8276

     highest occupied level (ev):     6.4867

!    total energy              =     -62.95346155 Ry
     Harris-Foulkes estimate   =     -62.95346155 Ry
     estimated scf accuracy    <          3.3E-09 Ry

     The total energy is the sum of the following terms:

     one-electron contribution =      19.83122027 Ry
     hartree contribution      =       4.30380782 Ry
     xc contribution           =     -19.35664744 Ry
     ewald contribution        =     -67.73184220 Ry

     convergence has been achieved in   8 iterations

     Writing output data file silicon.save
 
     init_run     :      0.55s CPU      0.56s WALL (       1 calls)
     electrons    :     21.43s CPU     21.75s WALL (       1 calls)

     Called by init_run:
     wfcinit      :      0.49s CPU      0.51s WALL (       1 calls)
     potinit      :      0.01s CPU      0.01s WALL (       1 calls)

     Called by electrons:
     c_bands      :     16.16s CPU     16.43s WALL (       9 calls)
     sum_band     :      1.91s CPU      1.92s WALL (       9 calls)
     v_of_rho     :      0.08s CPU      0.08s WALL (       9 calls)
     mix_rho      :      0.01s CPU      0.01s WALL (       9 calls)

     Called by c_bands:
     init_us_2    :      0.34s CPU      0.33s WALL (    1197 calls)
     cegterg      :     15.34s CPU     15.61s WALL (     567 calls)

     Called by sum_band:

     Called by *egterg:
     h_psi        :     11.37s CPU     11.59s WALL (    2341 calls)
     g_psi        :      0.20s CPU      0.21s WALL (    1711 calls)
     cdiaghg      :      1.70s CPU      1.70s WALL (    2215 calls)

     Called by h_psi:
     add_vuspsi   :      0.62s CPU      0.63s WALL (    2341 calls)

     General routines
     calbec       :      0.76s CPU      0.72s WALL (    2341 calls)
     fft          :      0.03s CPU      0.03s WALL (     100 calls)
     fftw         :     10.67s CPU     10.40s WALL (   67918 calls)
 
     Parallel routines
     fft_scatter  :      2.46s CPU      2.55s WALL (   68018 calls)

     Electric-field routines
     c_phase_fiel :      3.28s CPU      3.31s WALL (      24 calls)
 
     PWSCF        :    22.15s CPU        22.52s WALL

 
   This run was terminated on:  15:37:22  21Jul2016            

=------------------------------------------------------------------------------=
   JOB DONE.
=------------------------------------------------------------------------------=
