
     Program PWSCF v.5.4.0 (svn rev. 12782M) starts on 18Aug2016 at 16:14:15 

     This program is part of the open-source Quantum ESPRESSO suite
     for quantum simulation of materials; please cite
         "P. Giannozzi et al., J. Phys.:Condens. Matter 21 395502 (2009);
          URL http://www.quantum-espresso.org", 
     in publications or presentations arising from this work. More details at
     http://www.quantum-espresso.org/quote
 
           HOST :    x86_64-pc-linux-gnu
           ARCH :    x86_64
             CC :    icc
            CPP :    cpp
            F90 :    ifort
            F77 :    ifort
         DFLAGS :    -D__INTEL -D__FFTW -D__MPI -D__PARA -D__HDF5
      BLAS LIBS :    -lmkl_intel_lp64  -lmkl_sequential -lmkl_core
    LAPACK LIBS :    
       FFT LIBS :    
      MASS LIBS :    

     Parallel version (MPI), running on     2 processors
     R & G space division:  proc/nbgrp/npool/nimage =       2
     Waiting for input...
     Reading input from standard input
     Message from routine read_cards :
     DEPRECATED: no units specified in ATOMIC_POSITIONS card
     Message from routine read_cards :
     ATOMIC_POSITIONS: units set to alat

     Current dimensions of program PWSCF are:
     Max number of different atomic species (ntypx) = 10
     Max number of k-points (npk) =  40000
     Max angular momentum in pseudopotentials (lmaxx) =  3

     Subspace diagonalization in iterative solution of the eigenvalue problem:
     a serial algorithm will be used

     Found symmetry operation: I + ( -0.5000 -0.5000  0.0000)
     This is a supercell, fractional translations are disabled
 
     Parallelization info
     --------------------
     sticks:   dense  smooth     PW     G-vecs:    dense   smooth      PW
     Min         332     332    111                 6446     6446    1276
     Max         333     333    114                 6447     6447    1277
     Sum         665     665    225                12893    12893    2553
 


     bravais-lattice index     =            1
     lattice parameter (alat)  =      10.1800  a.u.
     unit-cell volume          =    1054.9778 (a.u.)^3
     number of atoms/cell      =            8
     number of atomic types    =            1
     number of electrons       =        32.00
     number of Kohn-Sham states=           16
     kinetic-energy cutoff     =      20.0000  Ry
     charge density cutoff     =      80.0000  Ry
     convergence threshold     =      1.0E-08
     mixing beta               =       0.5000
     number of iterations used =            8  plain     mixing
     Exchange-correlation      =  SLA  PW   PBE  PBE ( 1  4  3  4 0 0)
 
     Using Berry phase electric field
     In a.u.(Ry)  cartesian system of reference
        0.0000000000
        0.0000000000
        0.0000000000
     In a.u.(Ry)  crystal system of reference
        0.0000000000
        0.0000000000
        0.0000000000
     Number of iterative cycles:   1
 

     celldm(1)=  10.180000  celldm(2)=   0.000000  celldm(3)=   0.000000
     celldm(4)=   0.000000  celldm(5)=   0.000000  celldm(6)=   0.000000

     crystal axes: (cart. coord. in units of alat)
               a(1) = (   1.000000   0.000000   0.000000 )  
               a(2) = (   0.000000   1.000000   0.000000 )  
               a(3) = (   0.000000   0.000000   1.000000 )  

     reciprocal axes: (cart. coord. in units 2 pi/alat)
               b(1) = (  1.000000  0.000000  0.000000 )  
               b(2) = (  0.000000  1.000000  0.000000 )  
               b(3) = (  0.000000  0.000000  1.000000 )  


     PseudoPot. # 1 for Si read from file:
     /home/nvarini/espresso_hdf5/espresso/pseudo/Si.pbe-rrkj.UPF
     MD5 check sum: cf7ab5690cd9a85b22c4813f7e365554
     Pseudo is Norm-conserving, Zval =  4.0
     Generated by new atomic code, or converted to UPF format
     Using radial grid of  883 points,  3 beta functions with: 
                l(1) =   0
                l(2) =   0
                l(3) =   1

     atomic species   valence    mass     pseudopotential
        Si             4.00    28.08600     Si( 1.00)

     No symmetry found



   Cartesian axes

     site n.     atom                  positions (alat units)
         1           Si  tau(   1) = (  -0.1250000  -0.1250000  -0.1250000  )
         2           Si  tau(   2) = (   0.3750000   0.3750000  -0.1250000  )
         3           Si  tau(   3) = (   0.3750000  -0.1250000   0.3750000  )
         4           Si  tau(   4) = (  -0.1250000   0.3750000   0.3750000  )
         5           Si  tau(   5) = (   0.1250000   0.1250000   0.1250000  )
         6           Si  tau(   6) = (   0.6250000   0.6250000   0.1250000  )
         7           Si  tau(   7) = (   0.6250000   0.1250000   0.6250000  )
         8           Si  tau(   8) = (   0.1250000   0.6250000   0.6250000  )

     number of k points=    63
                       cart. coord. in units 2pi/alat
        k(    1) = (   0.0000000   0.0000000   0.0000000), wk =   0.0317460
        k(    2) = (   0.0000000   0.0000000   0.1428571), wk =   0.0317460
        k(    3) = (   0.0000000   0.0000000   0.2857143), wk =   0.0317460
        k(    4) = (   0.0000000   0.0000000   0.4285714), wk =   0.0317460
        k(    5) = (   0.0000000   0.0000000   0.5714286), wk =   0.0317460
        k(    6) = (   0.0000000   0.0000000   0.7142857), wk =   0.0317460
        k(    7) = (   0.0000000   0.0000000   0.8571429), wk =   0.0317460
        k(    8) = (   0.0000000   0.3333333   0.0000000), wk =   0.0317460
        k(    9) = (   0.0000000   0.3333333   0.1428571), wk =   0.0317460
        k(   10) = (   0.0000000   0.3333333   0.2857143), wk =   0.0317460
        k(   11) = (   0.0000000   0.3333333   0.4285714), wk =   0.0317460
        k(   12) = (   0.0000000   0.3333333   0.5714286), wk =   0.0317460
        k(   13) = (   0.0000000   0.3333333   0.7142857), wk =   0.0317460
        k(   14) = (   0.0000000   0.3333333   0.8571429), wk =   0.0317460
        k(   15) = (   0.0000000   0.6666667   0.0000000), wk =   0.0317460
        k(   16) = (   0.0000000   0.6666667   0.1428571), wk =   0.0317460
        k(   17) = (   0.0000000   0.6666667   0.2857143), wk =   0.0317460
        k(   18) = (   0.0000000   0.6666667   0.4285714), wk =   0.0317460
        k(   19) = (   0.0000000   0.6666667   0.5714286), wk =   0.0317460
        k(   20) = (   0.0000000   0.6666667   0.7142857), wk =   0.0317460
        k(   21) = (   0.0000000   0.6666667   0.8571429), wk =   0.0317460
        k(   22) = (   0.3333333   0.0000000   0.0000000), wk =   0.0317460
        k(   23) = (   0.3333333   0.0000000   0.1428571), wk =   0.0317460
        k(   24) = (   0.3333333   0.0000000   0.2857143), wk =   0.0317460
        k(   25) = (   0.3333333   0.0000000   0.4285714), wk =   0.0317460
        k(   26) = (   0.3333333   0.0000000   0.5714286), wk =   0.0317460
        k(   27) = (   0.3333333   0.0000000   0.7142857), wk =   0.0317460
        k(   28) = (   0.3333333   0.0000000   0.8571429), wk =   0.0317460
        k(   29) = (   0.3333333   0.3333333   0.0000000), wk =   0.0317460
        k(   30) = (   0.3333333   0.3333333   0.1428571), wk =   0.0317460
        k(   31) = (   0.3333333   0.3333333   0.2857143), wk =   0.0317460
        k(   32) = (   0.3333333   0.3333333   0.4285714), wk =   0.0317460
        k(   33) = (   0.3333333   0.3333333   0.5714286), wk =   0.0317460
        k(   34) = (   0.3333333   0.3333333   0.7142857), wk =   0.0317460
        k(   35) = (   0.3333333   0.3333333   0.8571429), wk =   0.0317460
        k(   36) = (   0.3333333   0.6666667   0.0000000), wk =   0.0317460
        k(   37) = (   0.3333333   0.6666667   0.1428571), wk =   0.0317460
        k(   38) = (   0.3333333   0.6666667   0.2857143), wk =   0.0317460
        k(   39) = (   0.3333333   0.6666667   0.4285714), wk =   0.0317460
        k(   40) = (   0.3333333   0.6666667   0.5714286), wk =   0.0317460
        k(   41) = (   0.3333333   0.6666667   0.7142857), wk =   0.0317460
        k(   42) = (   0.3333333   0.6666667   0.8571429), wk =   0.0317460
        k(   43) = (   0.6666667   0.0000000   0.0000000), wk =   0.0317460
        k(   44) = (   0.6666667   0.0000000   0.1428571), wk =   0.0317460
        k(   45) = (   0.6666667   0.0000000   0.2857143), wk =   0.0317460
        k(   46) = (   0.6666667   0.0000000   0.4285714), wk =   0.0317460
        k(   47) = (   0.6666667   0.0000000   0.5714286), wk =   0.0317460
        k(   48) = (   0.6666667   0.0000000   0.7142857), wk =   0.0317460
        k(   49) = (   0.6666667   0.0000000   0.8571429), wk =   0.0317460
        k(   50) = (   0.6666667   0.3333333   0.0000000), wk =   0.0317460
        k(   51) = (   0.6666667   0.3333333   0.1428571), wk =   0.0317460
        k(   52) = (   0.6666667   0.3333333   0.2857143), wk =   0.0317460
        k(   53) = (   0.6666667   0.3333333   0.4285714), wk =   0.0317460
        k(   54) = (   0.6666667   0.3333333   0.5714286), wk =   0.0317460
        k(   55) = (   0.6666667   0.3333333   0.7142857), wk =   0.0317460
        k(   56) = (   0.6666667   0.3333333   0.8571429), wk =   0.0317460
        k(   57) = (   0.6666667   0.6666667   0.0000000), wk =   0.0317460
        k(   58) = (   0.6666667   0.6666667   0.1428571), wk =   0.0317460
        k(   59) = (   0.6666667   0.6666667   0.2857143), wk =   0.0317460
        k(   60) = (   0.6666667   0.6666667   0.4285714), wk =   0.0317460
        k(   61) = (   0.6666667   0.6666667   0.5714286), wk =   0.0317460
        k(   62) = (   0.6666667   0.6666667   0.7142857), wk =   0.0317460
        k(   63) = (   0.6666667   0.6666667   0.8571429), wk =   0.0317460

     Dense  grid:    12893 G-vectors     FFT dimensions: (  30,  30,  30)

     Estimated max dynamical RAM per process >      17.34Mb

     Estimated total allocated dynamical RAM >      34.69Mb

     Initial potential from superposition of free atoms

     starting charge   31.99557, renormalised to   32.00000
     Starting wfc are random

     total cpu time spent up to now is        0.6 secs

     per-process dynamical memory:    18.4 Mb

     Self-consistent Calculation

     iteration #  1     ecut=    20.00 Ry     beta=0.50
     Davidson diagonalization with overlap
     ethr =  1.00E-02,  avg # of iterations =  7.6

     Threshold (ethr) on eigenvalues was too large:
     Diagonalizing with lowered threshold

     Davidson diagonalization with overlap
     ethr =  7.64E-04,  avg # of iterations =  1.7
 
     Expectation value of exp(iGx):
 (9.826475607875607E-002,9.873920109191137E-005)   1.00000000000000     
     Electronic Dipole per cell (Ry a.u.)  4.604734402713028E-003
     Ionic Dipole per cell (Ry a.u.)   115.173552519665     
 
     Expectation value of exp(iGx):
 (9.830293155039209E-002,-6.101298742977788E-004)   1.00000000000000     
     Electronic Dipole per cell (Ry a.u.) -2.844219747527416E-002
     Ionic Dipole per cell (Ry a.u.)   115.173552519665     
 
     Expectation value of exp(iGx): (0.348247557657000,1.547764591801415E-003)
   1.00000000000000     
     Electronic Dipole per cell (Ry a.u.)  2.036699099653819E-002
     Ionic Dipole per cell (Ry a.u.)   115.173552519665     
Electronic Dipole on Cartesian axes
           1  4.604734402713028E-003
           2 -2.844219747527416E-002
           3  2.036699099653819E-002
Ionic Dipole on Cartesian axes
           1   115.173552519665     
           2   115.173552519665     
           3   115.173552519665     

     total cpu time spent up to now is        6.7 secs

     total energy              =     -62.94975154 Ry
     Harris-Foulkes estimate   =     -62.99978773 Ry
     estimated scf accuracy    <       0.24610862 Ry

     iteration #  2     ecut=    20.00 Ry     beta=0.50
     Davidson diagonalization with overlap
     ethr =  7.69E-04,  avg # of iterations =  1.0
 
     Expectation value of exp(iGx):
 (9.545713101865252E-002,9.705615588260667E-005)   1.00000000000000     
     Electronic Dipole per cell (Ry a.u.)  4.659372822926987E-003
     Ionic Dipole per cell (Ry a.u.)   115.173552519665     
 
     Expectation value of exp(iGx):
 (9.548099463324543E-002,-4.507330253960811E-004)   1.00000000000000     
     Electronic Dipole per cell (Ry a.u.) -2.163276950187068E-002
     Ionic Dipole per cell (Ry a.u.)   115.173552519665     
 
     Expectation value of exp(iGx): (0.345531406700233,1.151731907871491E-003)
   1.00000000000000     
     Electronic Dipole per cell (Ry a.u.)  1.527478708518886E-002
     Ionic Dipole per cell (Ry a.u.)   115.173552519665     
Electronic Dipole on Cartesian axes
           1  4.659372822926987E-003
           2 -2.163276950187068E-002
           3  1.527478708518886E-002
Ionic Dipole on Cartesian axes
           1   115.173552519665     
           2   115.173552519665     
           3   115.173552519665     

     total cpu time spent up to now is        8.4 secs

     total energy              =     -62.94850201 Ry
     Harris-Foulkes estimate   =     -62.95595227 Ry
     estimated scf accuracy    <       0.04559481 Ry

     iteration #  3     ecut=    20.00 Ry     beta=0.50
     Davidson diagonalization with overlap
     ethr =  1.42E-04,  avg # of iterations =  2.0
 
     Expectation value of exp(iGx):
 (9.107142502806555E-002,1.029051911924169E-004)   1.00000000000000     
     Electronic Dipole per cell (Ry a.u.)  5.178069437651686E-003
     Ionic Dipole per cell (Ry a.u.)   115.173552519665     
 
     Expectation value of exp(iGx):
 (9.102995391097680E-002,-2.187680540153036E-004)   1.00000000000000     
     Electronic Dipole per cell (Ry a.u.) -1.101315237062410E-002
     Ionic Dipole per cell (Ry a.u.)   115.173552519665     
 
     Expectation value of exp(iGx): (0.338689017324510,4.444450281505619E-004)
   1.00000000000000     
     Electronic Dipole per cell (Ry a.u.)  6.013531526205033E-003
     Ionic Dipole per cell (Ry a.u.)   115.173552519665     
Electronic Dipole on Cartesian axes
           1  5.178069437651686E-003
           2 -1.101315237062410E-002
           3  6.013531526205033E-003
Ionic Dipole on Cartesian axes
           1   115.173552519665     
           2   115.173552519665     
           3   115.173552519665     

     total cpu time spent up to now is       10.2 secs

     total energy              =     -62.95266357 Ry
     Harris-Foulkes estimate   =     -62.95285713 Ry
     estimated scf accuracy    <       0.00085612 Ry

     iteration #  4     ecut=    20.00 Ry     beta=0.50
     Davidson diagonalization with overlap
     ethr =  2.68E-06,  avg # of iterations =  4.0
 
     Expectation value of exp(iGx):
 (9.007384549448967E-002,2.766200922569852E-006)   1.00000000000000     
     Electronic Dipole per cell (Ry a.u.)  1.407336399640553E-004
     Ionic Dipole per cell (Ry a.u.)   115.173552519665     
 
     Expectation value of exp(iGx):
 (9.007954789954256E-002,-2.814319502455159E-006)   1.00000000000000     
     Electronic Dipole per cell (Ry a.u.) -1.431726638316247E-004
     Ionic Dipole per cell (Ry a.u.)   115.173552519665     
 
     Expectation value of exp(iGx): (0.337111734019351,3.362673341315525E-005)
   1.00000000000000     
     Electronic Dipole per cell (Ry a.u.)  4.571131479579178E-004
     Ionic Dipole per cell (Ry a.u.)   115.173552519665     
Electronic Dipole on Cartesian axes
           1  1.407336399640553E-004
           2 -1.431726638316247E-004
           3  4.571131479579178E-004
Ionic Dipole on Cartesian axes
           1   115.173552519665     
           2   115.173552519665     
           3   115.173552519665     

     total cpu time spent up to now is       13.2 secs

     total energy              =     -62.95344425 Ry
     Harris-Foulkes estimate   =     -62.95348979 Ry
     estimated scf accuracy    <       0.00011233 Ry

     iteration #  5     ecut=    20.00 Ry     beta=0.50
     Davidson diagonalization with overlap
     ethr =  3.51E-07,  avg # of iterations =  2.1
 
     Expectation value of exp(iGx):
 (8.975834753525198E-002,-2.457444745404131E-006)   1.00000000000000     
     Electronic Dipole per cell (Ry a.u.) -1.254647761703000E-004
     Ionic Dipole per cell (Ry a.u.)   115.173552519665     
 
     Expectation value of exp(iGx):
 (8.975824645005638E-002,-3.779124634022759E-006)   1.00000000000000     
     Electronic Dipole per cell (Ry a.u.) -1.929433249857979E-004
     Ionic Dipole per cell (Ry a.u.)   115.173552519665     
 
     Expectation value of exp(iGx): (0.336514053672042,-2.551300241410265E-006)
   1.00000000000000     
     Electronic Dipole per cell (Ry a.u.) -3.474331605801114E-005
     Ionic Dipole per cell (Ry a.u.)   115.173552519665     
Electronic Dipole on Cartesian axes
           1 -1.254647761703000E-004
           2 -1.929433249857979E-004
           3 -3.474331605801114E-005
Ionic Dipole on Cartesian axes
           1   115.173552519665     
           2   115.173552519665     
           3   115.173552519665     

     total cpu time spent up to now is       15.3 secs

     total energy              =     -62.95346044 Ry
     Harris-Foulkes estimate   =     -62.95346088 Ry
     estimated scf accuracy    <       0.00000281 Ry

     iteration #  6     ecut=    20.00 Ry     beta=0.50
     Davidson diagonalization with overlap
     ethr =  8.77E-09,  avg # of iterations =  3.3
 
     Expectation value of exp(iGx):
 (8.974571729095433E-002,7.946296067669265E-007)   1.00000000000000     
     Electronic Dipole per cell (Ry a.u.)  4.057550300135996E-005
     Ionic Dipole per cell (Ry a.u.)   115.173552519665     
 
     Expectation value of exp(iGx):
 (8.974604376585435E-002,-5.624397424432701E-007)   1.00000000000000     
     Electronic Dipole per cell (Ry a.u.) -2.871928285221188E-005
     Ionic Dipole per cell (Ry a.u.)   115.173552519665     
 
     Expectation value of exp(iGx): (0.336455264177873,-1.778301589069709E-006)
   1.00000000000000     
     Electronic Dipole per cell (Ry a.u.) -2.422093989965214E-005
     Ionic Dipole per cell (Ry a.u.)   115.173552519665     
Electronic Dipole on Cartesian axes
           1  4.057550300135996E-005
           2 -2.871928285221188E-005
           3 -2.422093989965214E-005
Ionic Dipole on Cartesian axes
           1   115.173552519665     
           2   115.173552519665     
           3   115.173552519665     

     total cpu time spent up to now is       17.8 secs

     total energy              =     -62.95346151 Ry
     Harris-Foulkes estimate   =     -62.95346145 Ry
     estimated scf accuracy    <       0.00000034 Ry

     iteration #  7     ecut=    20.00 Ry     beta=0.50
     Davidson diagonalization with overlap
     ethr =  1.07E-09,  avg # of iterations =  2.2
 
     Expectation value of exp(iGx):
 (8.975071068416385E-002,9.211837030814689E-009)   1.00000000000000     
     Electronic Dipole per cell (Ry a.u.)  4.703501134149548E-007
     Ionic Dipole per cell (Ry a.u.)   115.173552519665     
 
     Expectation value of exp(iGx):
 (8.975082854836895E-002,-6.922088060088867E-007)   1.00000000000000     
     Electronic Dipole per cell (Ry a.u.) -3.534366291466699E-005
     Ionic Dipole per cell (Ry a.u.)   115.173552519665     
 
     Expectation value of exp(iGx): (0.336458978671594,4.782769608863257E-008)
   1.00000000000000     
     Electronic Dipole per cell (Ry a.u.)  6.514187304291733E-007
     Ionic Dipole per cell (Ry a.u.)   115.173552519665     
Electronic Dipole on Cartesian axes
           1  4.703501134149548E-007
           2 -3.534366291466699E-005
           3  6.514187304291733E-007
Ionic Dipole on Cartesian axes
           1   115.173552519665     
           2   115.173552519665     
           3   115.173552519665     

     total cpu time spent up to now is       19.8 secs

     total energy              =     -62.95346155 Ry
     Harris-Foulkes estimate   =     -62.95346155 Ry
     estimated scf accuracy    <       0.00000001 Ry

     iteration #  8     ecut=    20.00 Ry     beta=0.50
     Davidson diagonalization with overlap
     ethr =  3.69E-11,  avg # of iterations =  3.5
 
     Expectation value of exp(iGx):
 (8.974979875869062E-002,-6.563337533449886E-008)   1.00000000000000     
     Electronic Dipole per cell (Ry a.u.) -3.351229412580892E-006
     Ionic Dipole per cell (Ry a.u.)   115.173552519665     
 
     Expectation value of exp(iGx):
 (8.974978868722633E-002,-1.690535606268193E-007)   1.00000000000000     
     Electronic Dipole per cell (Ry a.u.) -8.631848131555037E-006
     Ionic Dipole per cell (Ry a.u.)   115.173552519665     
 
     Expectation value of exp(iGx): (0.336454649036648,-1.952958336567982E-007)
   1.00000000000000     
     Electronic Dipole per cell (Ry a.u.) -2.659985981625413E-006
     Ionic Dipole per cell (Ry a.u.)   115.173552519665     
Electronic Dipole on Cartesian axes
           1 -3.351229412580892E-006
           2 -8.631848131555037E-006
           3 -2.659985981625413E-006
Ionic Dipole on Cartesian axes
           1   115.173552519665     
           2   115.173552519665     
           3   115.173552519665     

     total cpu time spent up to now is       22.3 secs

     End of self-consistent calculation

          k = 0.0000 0.0000 0.0000 (  1575 PWs)   bands (ev):

    -5.5814  -1.3521  -1.3521  -1.3521  -1.3520  -1.3520  -1.3520   3.5786
     3.5786   3.5786   3.5786   3.5787   3.5787   6.4863   6.4865   6.4866

          k = 0.0000 0.0000 0.1429 (  1599 PWs)   bands (ev):

    -5.4903  -2.4217  -1.3213  -1.3213  -1.3213  -1.3213  -0.1750   3.3331
     3.3331   3.3332   3.3332   3.6606   3.6606   5.9837   6.1468   6.1468

          k = 0.0000 0.0000 0.2857 (  1582 PWs)   bands (ev):

    -5.2179  -3.3588  -1.2478  -1.2478  -1.2478  -1.2478   1.0778   2.8851
     2.8851   2.8851   2.8851   3.9046   3.9046   4.9088   5.4914   5.4914

          k = 0.0000 0.0000 0.4286 (  1602 PWs)   bands (ev):

    -4.7677  -4.1451  -1.1839  -1.1839  -1.1838  -1.1838   2.3698   2.5822
     2.5822   2.5822   2.5822   3.6633   4.3033   4.3034   4.8439   4.8439

          k = 0.0000 0.0000 0.5714 (  1602 PWs)   bands (ev):

    -4.7677  -4.1451  -1.1839  -1.1839  -1.1838  -1.1838   2.3698   2.5822
     2.5822   2.5822   2.5822   3.6633   4.3033   4.3034   4.8439   4.8439

          k = 0.0000 0.0000 0.7143 (  1582 PWs)   bands (ev):

    -5.2179  -3.3588  -1.2478  -1.2478  -1.2478  -1.2478   1.0778   2.8851
     2.8851   2.8851   2.8851   3.9046   3.9046   4.9088   5.4914   5.4914

          k = 0.0000 0.0000 0.8571 (  1599 PWs)   bands (ev):

    -5.4903  -2.4217  -1.3213  -1.3213  -1.3213  -1.3213  -0.1750   3.3331
     3.3331   3.3332   3.3332   3.6606   3.6606   5.9837   6.1468   6.1468

          k = 0.0000 0.3333 0.0000 (  1594 PWs)   bands (ev):

    -5.0875  -3.6383  -1.2223  -1.2223  -1.2222  -1.2222   1.5060   2.7568
     2.7569   2.7569   2.7569   4.0205   4.0206   4.5036   5.2672   5.2674

          k = 0.0000 0.3333 0.1429 (  1586 PWs)   bands (ev):

    -4.9995  -3.5636  -2.1369  -1.6219  -0.8459  -0.3007   1.3724   2.1959
     2.6306   3.1659   3.5244   3.6877   3.9256   4.0205   4.9207   5.6971

          k = 0.0000 0.3333 0.2857 (  1602 PWs)   bands (ev):

    -4.7372  -3.3442  -2.9830  -2.0764  -0.4415   0.5748   1.0090   1.9684
     2.7518   3.0508   3.0712   3.8605   4.0921   4.2017   4.2508   5.9688

          k = 0.0000 0.3333 0.4286 (  1598 PWs)   bands (ev):

    -4.3060  -3.7155  -2.9973  -2.5563   0.0184   0.5218   1.4024   2.0791
     2.2237   2.4675   3.0862   3.6015   4.2730   4.4199   4.7474   5.5849

          k = 0.0000 0.3333 0.5714 (  1598 PWs)   bands (ev):

    -4.3060  -3.7155  -2.9973  -2.5563   0.0184   0.5218   1.4024   2.0791
     2.2236   2.4675   3.0862   3.6015   4.2731   4.4199   4.7474   5.5848

          k = 0.0000 0.3333 0.7143 (  1602 PWs)   bands (ev):

    -4.7372  -3.3443  -2.9830  -2.0764  -0.4415   0.5748   1.0091   1.9684
     2.7518   3.0507   3.0712   3.8605   4.0921   4.2016   4.2508   5.9688

          k = 0.0000 0.3333 0.8571 (  1586 PWs)   bands (ev):

    -4.9995  -3.5636  -2.1369  -1.6219  -0.8459  -0.3007   1.3724   2.1959
     2.6305   3.1659   3.5244   3.6876   3.9256   4.0205   4.9208   5.6971

          k = 0.0000 0.6667 0.0000 (  1594 PWs)   bands (ev):

    -5.0875  -3.6383  -1.2223  -1.2223  -1.2222  -1.2222   1.5060   2.7568
     2.7569   2.7569   2.7569   4.0205   4.0206   4.5036   5.2672   5.2674

          k = 0.0000 0.6667 0.1429 (  1586 PWs)   bands (ev):

    -4.9995  -3.5636  -2.1369  -1.6219  -0.8459  -0.3007   1.3724   2.1959
     2.6305   3.1659   3.5244   3.6876   3.9256   4.0205   4.9208   5.6971

          k = 0.0000 0.6667 0.2857 (  1602 PWs)   bands (ev):

    -4.7372  -3.3443  -2.9830  -2.0764  -0.4415   0.5748   1.0091   1.9684
     2.7518   3.0507   3.0712   3.8605   4.0921   4.2016   4.2508   5.9688

          k = 0.0000 0.6667 0.4286 (  1598 PWs)   bands (ev):

    -4.3060  -3.7155  -2.9973  -2.5563   0.0184   0.5218   1.4024   2.0791
     2.2236   2.4675   3.0862   3.6015   4.2731   4.4199   4.7474   5.5848

          k = 0.0000 0.6667 0.5714 (  1598 PWs)   bands (ev):

    -4.3060  -3.7155  -2.9973  -2.5563   0.0184   0.5218   1.4024   2.0791
     2.2237   2.4675   3.0862   3.6015   4.2730   4.4199   4.7474   5.5849

          k = 0.0000 0.6667 0.7143 (  1602 PWs)   bands (ev):

    -4.7372  -3.3442  -2.9830  -2.0764  -0.4415   0.5748   1.0090   1.9684
     2.7518   3.0508   3.0712   3.8605   4.0921   4.2017   4.2508   5.9688

          k = 0.0000 0.6667 0.8571 (  1586 PWs)   bands (ev):

    -4.9995  -3.5636  -2.1369  -1.6219  -0.8459  -0.3007   1.3724   2.1959
     2.6306   3.1659   3.5244   3.6877   3.9256   4.0205   4.9207   5.6971

          k = 0.3333 0.0000 0.0000 (  1594 PWs)   bands (ev):

    -5.0875  -3.6383  -1.2223  -1.2223  -1.2222  -1.2222   1.5060   2.7568
     2.7569   2.7569   2.7569   4.0205   4.0206   4.5036   5.2672   5.2674

          k = 0.3333 0.0000 0.1429 (  1586 PWs)   bands (ev):

    -4.9995  -3.5636  -2.1369  -1.6219  -0.8459  -0.3007   1.3724   2.1959
     2.6306   3.1659   3.5244   3.6877   3.9256   4.0205   4.9207   5.6971

          k = 0.3333 0.0000 0.2857 (  1602 PWs)   bands (ev):

    -4.7372  -3.3442  -2.9830  -2.0764  -0.4415   0.5748   1.0090   1.9684
     2.7518   3.0508   3.0712   3.8605   4.0921   4.2017   4.2508   5.9688

          k = 0.3333 0.0000 0.4286 (  1598 PWs)   bands (ev):

    -4.3060  -3.7155  -2.9973  -2.5563   0.0184   0.5218   1.4024   2.0791
     2.2237   2.4675   3.0862   3.6015   4.2730   4.4199   4.7474   5.5849

          k = 0.3333 0.0000 0.5714 (  1598 PWs)   bands (ev):

    -4.3060  -3.7155  -2.9973  -2.5563   0.0184   0.5218   1.4024   2.0791
     2.2236   2.4675   3.0862   3.6015   4.2731   4.4199   4.7474   5.5848

          k = 0.3333 0.0000 0.7143 (  1602 PWs)   bands (ev):

    -4.7372  -3.3443  -2.9830  -2.0764  -0.4415   0.5748   1.0091   1.9684
     2.7518   3.0507   3.0712   3.8605   4.0921   4.2016   4.2508   5.9688

          k = 0.3333 0.0000 0.8571 (  1586 PWs)   bands (ev):

    -4.9995  -3.5636  -2.1369  -1.6219  -0.8459  -0.3007   1.3724   2.1960
     2.6305   3.1659   3.5244   3.6876   3.9256   4.0205   4.9208   5.6971

          k = 0.3333 0.3333 0.0000 (  1602 PWs)   bands (ev):

    -4.6119  -3.2415  -3.2415  -2.2366  -0.2947   0.8543   0.8543   1.9700
     2.7856   2.8411   2.8411   4.0240   4.1433   4.1433   4.3344   5.9165

          k = 0.3333 0.3333 0.1429 (  1596 PWs)   bands (ev):

    -4.5299  -3.1932  -3.1932  -2.4030  -0.3442   0.5324   0.5324   2.2093
     2.3853   3.1359   3.1359   4.2716   4.2716   4.3999   4.6291   5.8276

          k = 0.3333 0.3333 0.2857 (  1598 PWs)   bands (ev):

    -4.2877  -3.0718  -3.0718  -2.8469  -0.2598  -0.0168  -0.0168   1.3739
     3.3213   3.5703   3.5703   4.5836   4.5836   4.5899   5.3737   5.5797

          k = 0.3333 0.3333 0.4286 (  1592 PWs)   bands (ev):

    -3.8988  -3.3947  -2.9569  -2.9569  -0.3882  -0.3882   0.0832   0.6431
     3.8275   3.8275   4.4022   4.7876   4.7876   4.8828   5.2361   5.2921

          k = 0.3333 0.3333 0.5714 (  1592 PWs)   bands (ev):

    -3.8988  -3.3947  -2.9569  -2.9569  -0.3882  -0.3882   0.0833   0.6431
     3.8275   3.8275   4.4022   4.7876   4.7876   4.8828   5.2361   5.2920

          k = 0.3333 0.3333 0.7143 (  1598 PWs)   bands (ev):

    -4.2877  -3.0718  -3.0718  -2.8469  -0.2597  -0.0168  -0.0168   1.3739
     3.3212   3.5703   3.5703   4.5836   4.5836   4.5898   5.3736   5.5797

          k = 0.3333 0.3333 0.8571 (  1596 PWs)   bands (ev):

    -4.5299  -3.1932  -3.1932  -2.4030  -0.3441   0.5324   0.5324   2.2093
     2.3853   3.1359   3.1359   4.2716   4.2716   4.3999   4.6291   5.8276

          k = 0.3333 0.6667 0.0000 (  1602 PWs)   bands (ev):

    -4.6119  -3.2415  -3.2415  -2.2366  -0.2947   0.8544   0.8544   1.9700
     2.7855   2.8411   2.8411   4.0240   4.1433   4.1433   4.3344   5.9165

          k = 0.3333 0.6667 0.1429 (  1596 PWs)   bands (ev):

    -4.5299  -3.1932  -3.1932  -2.4030  -0.3442   0.5325   0.5325   2.2093
     2.3853   3.1358   3.1359   4.2716   4.2716   4.3999   4.6292   5.8275

          k = 0.3333 0.6667 0.2857 (  1598 PWs)   bands (ev):

    -4.2877  -3.0718  -3.0718  -2.8469  -0.2598  -0.0168  -0.0167   1.3739
     3.3213   3.5703   3.5703   4.5836   4.5836   4.5898   5.3737   5.5796

          k = 0.3333 0.6667 0.4286 (  1592 PWs)   bands (ev):

    -3.8988  -3.3947  -2.9569  -2.9569  -0.3882  -0.3882   0.0832   0.6431
     3.8275   3.8275   4.4022   4.7876   4.7876   4.8827   5.2360   5.2921

          k = 0.3333 0.6667 0.5714 (  1592 PWs)   bands (ev):

    -3.8988  -3.3947  -2.9569  -2.9569  -0.3882  -0.3882   0.0832   0.6431
     3.8275   3.8275   4.4022   4.7876   4.7876   4.8827   5.2360   5.2921

          k = 0.3333 0.6667 0.7143 (  1598 PWs)   bands (ev):

    -4.2877  -3.0718  -3.0718  -2.8469  -0.2598  -0.0168  -0.0167   1.3739
     3.3213   3.5703   3.5703   4.5836   4.5836   4.5898   5.3737   5.5796

          k = 0.3333 0.6667 0.8571 (  1596 PWs)   bands (ev):

    -4.5299  -3.1932  -3.1932  -2.4030  -0.3442   0.5325   0.5325   2.2093
     2.3853   3.1359   3.1359   4.2716   4.2716   4.3999   4.6292   5.8275

          k = 0.6667 0.0000 0.0000 (  1594 PWs)   bands (ev):

    -5.0875  -3.6383  -1.2223  -1.2223  -1.2222  -1.2222   1.5060   2.7568
     2.7569   2.7569   2.7569   4.0205   4.0206   4.5036   5.2672   5.2674

          k = 0.6667 0.0000 0.1429 (  1586 PWs)   bands (ev):

    -4.9995  -3.5636  -2.1369  -1.6219  -0.8459  -0.3007   1.3724   2.1960
     2.6305   3.1659   3.5244   3.6876   3.9256   4.0205   4.9208   5.6971

          k = 0.6667 0.0000 0.2857 (  1602 PWs)   bands (ev):

    -4.7372  -3.3443  -2.9830  -2.0764  -0.4415   0.5748   1.0091   1.9684
     2.7518   3.0507   3.0712   3.8605   4.0921   4.2016   4.2508   5.9688

          k = 0.6667 0.0000 0.4286 (  1598 PWs)   bands (ev):

    -4.3060  -3.7155  -2.9973  -2.5563   0.0184   0.5218   1.4024   2.0791
     2.2236   2.4675   3.0862   3.6015   4.2731   4.4199   4.7474   5.5848

          k = 0.6667 0.0000 0.5714 (  1598 PWs)   bands (ev):

    -4.3060  -3.7155  -2.9973  -2.5563   0.0184   0.5218   1.4024   2.0791
     2.2237   2.4675   3.0862   3.6015   4.2730   4.4199   4.7474   5.5849

          k = 0.6667 0.0000 0.7143 (  1602 PWs)   bands (ev):

    -4.7372  -3.3442  -2.9830  -2.0764  -0.4415   0.5748   1.0090   1.9684
     2.7518   3.0508   3.0712   3.8605   4.0921   4.2017   4.2508   5.9688

          k = 0.6667 0.0000 0.8571 (  1586 PWs)   bands (ev):

    -4.9995  -3.5636  -2.1369  -1.6219  -0.8459  -0.3007   1.3724   2.1959
     2.6306   3.1659   3.5244   3.6877   3.9256   4.0205   4.9207   5.6971

          k = 0.6667 0.3333 0.0000 (  1602 PWs)   bands (ev):

    -4.6119  -3.2415  -3.2415  -2.2366  -0.2947   0.8544   0.8544   1.9700
     2.7855   2.8411   2.8411   4.0240   4.1433   4.1433   4.3344   5.9165

          k = 0.6667 0.3333 0.1429 (  1596 PWs)   bands (ev):

    -4.5299  -3.1932  -3.1932  -2.4030  -0.3442   0.5325   0.5325   2.2093
     2.3853   3.1359   3.1359   4.2716   4.2716   4.3999   4.6292   5.8275

          k = 0.6667 0.3333 0.2857 (  1598 PWs)   bands (ev):

    -4.2877  -3.0718  -3.0718  -2.8469  -0.2598  -0.0168  -0.0167   1.3739
     3.3213   3.5703   3.5703   4.5836   4.5836   4.5898   5.3737   5.5796

          k = 0.6667 0.3333 0.4286 (  1592 PWs)   bands (ev):

    -3.8988  -3.3947  -2.9569  -2.9569  -0.3882  -0.3882   0.0832   0.6431
     3.8275   3.8275   4.4022   4.7876   4.7876   4.8827   5.2360   5.2921

          k = 0.6667 0.3333 0.5714 (  1592 PWs)   bands (ev):

    -3.8988  -3.3947  -2.9569  -2.9569  -0.3882  -0.3882   0.0832   0.6431
     3.8275   3.8275   4.4022   4.7876   4.7876   4.8827   5.2360   5.2921

          k = 0.6667 0.3333 0.7143 (  1598 PWs)   bands (ev):

    -4.2877  -3.0718  -3.0718  -2.8469  -0.2598  -0.0168  -0.0167   1.3739
     3.3213   3.5703   3.5703   4.5836   4.5836   4.5898   5.3737   5.5796

          k = 0.6667 0.3333 0.8571 (  1596 PWs)   bands (ev):

    -4.5299  -3.1932  -3.1932  -2.4030  -0.3442   0.5325   0.5325   2.2093
     2.3853   3.1358   3.1359   4.2716   4.2716   4.3999   4.6292   5.8275

          k = 0.6667 0.6667 0.0000 (  1602 PWs)   bands (ev):

    -4.6119  -3.2415  -3.2415  -2.2366  -0.2947   0.8543   0.8543   1.9700
     2.7856   2.8411   2.8411   4.0240   4.1433   4.1433   4.3344   5.9165

          k = 0.6667 0.6667 0.1429 (  1596 PWs)   bands (ev):

    -4.5299  -3.1932  -3.1932  -2.4030  -0.3441   0.5324   0.5324   2.2093
     2.3853   3.1359   3.1359   4.2716   4.2716   4.3999   4.6291   5.8276

          k = 0.6667 0.6667 0.2857 (  1598 PWs)   bands (ev):

    -4.2877  -3.0718  -3.0718  -2.8469  -0.2597  -0.0168  -0.0168   1.3739
     3.3212   3.5703   3.5703   4.5836   4.5836   4.5898   5.3736   5.5797

          k = 0.6667 0.6667 0.4286 (  1592 PWs)   bands (ev):

    -3.8988  -3.3947  -2.9569  -2.9569  -0.3882  -0.3882   0.0833   0.6431
     3.8275   3.8275   4.4022   4.7876   4.7876   4.8828   5.2361   5.2920

          k = 0.6667 0.6667 0.5714 (  1592 PWs)   bands (ev):

    -3.8988  -3.3947  -2.9569  -2.9569  -0.3882  -0.3882   0.0832   0.6431
     3.8275   3.8275   4.4022   4.7876   4.7876   4.8828   5.2361   5.2921

          k = 0.6667 0.6667 0.7143 (  1598 PWs)   bands (ev):

    -4.2877  -3.0718  -3.0718  -2.8469  -0.2598  -0.0168  -0.0168   1.3739
     3.3213   3.5703   3.5703   4.5836   4.5836   4.5899   5.3737   5.5797

          k = 0.6667 0.6667 0.8571 (  1596 PWs)   bands (ev):

    -4.5299  -3.1932  -3.1932  -2.4030  -0.3442   0.5324   0.5324   2.2093
     2.3853   3.1359   3.1359   4.2716   4.2716   4.3999   4.6291   5.8276

     highest occupied level (ev):     6.4866

!    total energy              =     -62.95346155 Ry
     Harris-Foulkes estimate   =     -62.95346155 Ry
     estimated scf accuracy    <          3.0E-10 Ry

     The total energy is the sum of the following terms:

     one-electron contribution =      19.83119316 Ry
     hartree contribution      =       4.30385362 Ry
     xc contribution           =     -19.35666613 Ry
     ewald contribution        =     -67.73184220 Ry

     convergence has been achieved in   8 iterations

     Writing output data file silicon.save
 
     init_run     :      0.55s CPU      0.57s WALL (       1 calls)
     electrons    :     21.47s CPU     21.74s WALL (       1 calls)

     Called by init_run:
     wfcinit      :      0.50s CPU      0.51s WALL (       1 calls)
     potinit      :      0.01s CPU      0.01s WALL (       1 calls)

     Called by electrons:
     c_bands      :     16.17s CPU     16.39s WALL (       9 calls)
     sum_band     :      1.93s CPU      1.93s WALL (       9 calls)
     v_of_rho     :      0.08s CPU      0.08s WALL (       9 calls)
     mix_rho      :      0.01s CPU      0.01s WALL (       9 calls)

     Called by c_bands:
     init_us_2    :      0.33s CPU      0.33s WALL (    1197 calls)
     cegterg      :     15.37s CPU     15.59s WALL (     567 calls)

     Called by sum_band:

     Called by *egterg:
     h_psi        :     11.42s CPU     11.62s WALL (    2353 calls)
     g_psi        :      0.21s CPU      0.21s WALL (    1723 calls)
     cdiaghg      :      1.69s CPU      1.69s WALL (    2227 calls)

     Called by h_psi:
     h_psi:pot    :     11.38s CPU     11.54s WALL (    2353 calls)
     h_psi:calbec :      0.74s CPU      0.71s WALL (    2353 calls)
     add_vuspsi   :      0.63s CPU      0.64s WALL (    2353 calls)

     General routines
     calbec       :      0.74s CPU      0.71s WALL (    2353 calls)
     fft          :      0.03s CPU      0.03s WALL (     100 calls)
     fftw         :     10.66s CPU     10.44s WALL (   67878 calls)
 
     Parallel routines
     fft_scatter  :      2.45s CPU      2.60s WALL (   67978 calls)

     Electric-field routines
     c_phase_fiel :      3.28s CPU      3.33s WALL (      24 calls)
 
     PWSCF        :    22.20s CPU        22.52s WALL

 
   This run was terminated on:  16:14:38  18Aug2016            

=------------------------------------------------------------------------------=
   JOB DONE.
=------------------------------------------------------------------------------=
