
     Program PWSCF v.5.4.0 (svn rev. 12782M) starts on 18Aug2016 at 16:14:38 

     This program is part of the open-source Quantum ESPRESSO suite
     for quantum simulation of materials; please cite
         "P. Giannozzi et al., J. Phys.:Condens. Matter 21 395502 (2009);
          URL http://www.quantum-espresso.org", 
     in publications or presentations arising from this work. More details at
     http://www.quantum-espresso.org/quote
 
           HOST :    x86_64-pc-linux-gnu
           ARCH :    x86_64
             CC :    icc
            CPP :    cpp
            F90 :    ifort
            F77 :    ifort
         DFLAGS :    -D__INTEL -D__FFTW -D__MPI -D__PARA -D__HDF5
      BLAS LIBS :    -lmkl_intel_lp64  -lmkl_sequential -lmkl_core
    LAPACK LIBS :    
       FFT LIBS :    
      MASS LIBS :    

     Parallel version (MPI), running on     2 processors
     R & G space division:  proc/nbgrp/npool/nimage =       2
     Waiting for input...
     Reading input from standard input
     Message from routine read_cards :
     DEPRECATED: no units specified in ATOMIC_POSITIONS card
     Message from routine read_cards :
     ATOMIC_POSITIONS: units set to alat

     Current dimensions of program PWSCF are:
     Max number of different atomic species (ntypx) = 10
     Max number of k-points (npk) =  40000
     Max angular momentum in pseudopotentials (lmaxx) =  3

     Subspace diagonalization in iterative solution of the eigenvalue problem:
     a serial algorithm will be used

     Found symmetry operation: I + ( -0.5000 -0.5000  0.0000)
     This is a supercell, fractional translations are disabled
 
     Parallelization info
     --------------------
     sticks:   dense  smooth     PW     G-vecs:    dense   smooth      PW
     Min         332     332    111                 6446     6446    1276
     Max         333     333    114                 6447     6447    1277
     Sum         665     665    225                12893    12893    2553
 


     bravais-lattice index     =            1
     lattice parameter (alat)  =      10.1800  a.u.
     unit-cell volume          =    1054.9778 (a.u.)^3
     number of atoms/cell      =            8
     number of atomic types    =            1
     number of electrons       =        32.00
     number of Kohn-Sham states=           16
     kinetic-energy cutoff     =      20.0000  Ry
     charge density cutoff     =      80.0000  Ry
     convergence threshold     =      1.0E-08
     mixing beta               =       0.5000
     number of iterations used =            8  plain     mixing
     Exchange-correlation      =  SLA  PW   PBE  PBE ( 1  4  3  4 0 0)
 
     Using Berry phase electric field
     In a.u.(Ry)  cartesian system of reference
        0.0000000000
        0.0000000000
        0.0010000000
     In a.u.(Ry)  crystal system of reference
        0.0000000000
        0.0000000000
        0.0010000000
     Number of iterative cycles:   3
 

     celldm(1)=  10.180000  celldm(2)=   0.000000  celldm(3)=   0.000000
     celldm(4)=   0.000000  celldm(5)=   0.000000  celldm(6)=   0.000000

     crystal axes: (cart. coord. in units of alat)
               a(1) = (   1.000000   0.000000   0.000000 )  
               a(2) = (   0.000000   1.000000   0.000000 )  
               a(3) = (   0.000000   0.000000   1.000000 )  

     reciprocal axes: (cart. coord. in units 2 pi/alat)
               b(1) = (  1.000000  0.000000  0.000000 )  
               b(2) = (  0.000000  1.000000  0.000000 )  
               b(3) = (  0.000000  0.000000  1.000000 )  


     PseudoPot. # 1 for Si read from file:
     /home/nvarini/espresso_hdf5/espresso/pseudo/Si.pbe-rrkj.UPF
     MD5 check sum: cf7ab5690cd9a85b22c4813f7e365554
     Pseudo is Norm-conserving, Zval =  4.0
     Generated by new atomic code, or converted to UPF format
     Using radial grid of  883 points,  3 beta functions with: 
                l(1) =   0
                l(2) =   0
                l(3) =   1

     atomic species   valence    mass     pseudopotential
        Si             4.00    28.08600     Si( 1.00)

     No symmetry found



   Cartesian axes

     site n.     atom                  positions (alat units)
         1           Si  tau(   1) = (  -0.1250000  -0.1250000  -0.1250000  )
         2           Si  tau(   2) = (   0.3750000   0.3750000  -0.1250000  )
         3           Si  tau(   3) = (   0.3750000  -0.1250000   0.3750000  )
         4           Si  tau(   4) = (  -0.1250000   0.3750000   0.3750000  )
         5           Si  tau(   5) = (   0.1250000   0.1250000   0.1250000  )
         6           Si  tau(   6) = (   0.6250000   0.6250000   0.1250000  )
         7           Si  tau(   7) = (   0.6250000   0.1250000   0.6250000  )
         8           Si  tau(   8) = (   0.1250000   0.6250000   0.6250000  )

     number of k points=    63
                       cart. coord. in units 2pi/alat
        k(    1) = (   0.0000000   0.0000000   0.0000000), wk =   0.0317460
        k(    2) = (   0.0000000   0.0000000   0.1428571), wk =   0.0317460
        k(    3) = (   0.0000000   0.0000000   0.2857143), wk =   0.0317460
        k(    4) = (   0.0000000   0.0000000   0.4285714), wk =   0.0317460
        k(    5) = (   0.0000000   0.0000000   0.5714286), wk =   0.0317460
        k(    6) = (   0.0000000   0.0000000   0.7142857), wk =   0.0317460
        k(    7) = (   0.0000000   0.0000000   0.8571429), wk =   0.0317460
        k(    8) = (   0.0000000   0.3333333   0.0000000), wk =   0.0317460
        k(    9) = (   0.0000000   0.3333333   0.1428571), wk =   0.0317460
        k(   10) = (   0.0000000   0.3333333   0.2857143), wk =   0.0317460
        k(   11) = (   0.0000000   0.3333333   0.4285714), wk =   0.0317460
        k(   12) = (   0.0000000   0.3333333   0.5714286), wk =   0.0317460
        k(   13) = (   0.0000000   0.3333333   0.7142857), wk =   0.0317460
        k(   14) = (   0.0000000   0.3333333   0.8571429), wk =   0.0317460
        k(   15) = (   0.0000000   0.6666667   0.0000000), wk =   0.0317460
        k(   16) = (   0.0000000   0.6666667   0.1428571), wk =   0.0317460
        k(   17) = (   0.0000000   0.6666667   0.2857143), wk =   0.0317460
        k(   18) = (   0.0000000   0.6666667   0.4285714), wk =   0.0317460
        k(   19) = (   0.0000000   0.6666667   0.5714286), wk =   0.0317460
        k(   20) = (   0.0000000   0.6666667   0.7142857), wk =   0.0317460
        k(   21) = (   0.0000000   0.6666667   0.8571429), wk =   0.0317460
        k(   22) = (   0.3333333   0.0000000   0.0000000), wk =   0.0317460
        k(   23) = (   0.3333333   0.0000000   0.1428571), wk =   0.0317460
        k(   24) = (   0.3333333   0.0000000   0.2857143), wk =   0.0317460
        k(   25) = (   0.3333333   0.0000000   0.4285714), wk =   0.0317460
        k(   26) = (   0.3333333   0.0000000   0.5714286), wk =   0.0317460
        k(   27) = (   0.3333333   0.0000000   0.7142857), wk =   0.0317460
        k(   28) = (   0.3333333   0.0000000   0.8571429), wk =   0.0317460
        k(   29) = (   0.3333333   0.3333333   0.0000000), wk =   0.0317460
        k(   30) = (   0.3333333   0.3333333   0.1428571), wk =   0.0317460
        k(   31) = (   0.3333333   0.3333333   0.2857143), wk =   0.0317460
        k(   32) = (   0.3333333   0.3333333   0.4285714), wk =   0.0317460
        k(   33) = (   0.3333333   0.3333333   0.5714286), wk =   0.0317460
        k(   34) = (   0.3333333   0.3333333   0.7142857), wk =   0.0317460
        k(   35) = (   0.3333333   0.3333333   0.8571429), wk =   0.0317460
        k(   36) = (   0.3333333   0.6666667   0.0000000), wk =   0.0317460
        k(   37) = (   0.3333333   0.6666667   0.1428571), wk =   0.0317460
        k(   38) = (   0.3333333   0.6666667   0.2857143), wk =   0.0317460
        k(   39) = (   0.3333333   0.6666667   0.4285714), wk =   0.0317460
        k(   40) = (   0.3333333   0.6666667   0.5714286), wk =   0.0317460
        k(   41) = (   0.3333333   0.6666667   0.7142857), wk =   0.0317460
        k(   42) = (   0.3333333   0.6666667   0.8571429), wk =   0.0317460
        k(   43) = (   0.6666667   0.0000000   0.0000000), wk =   0.0317460
        k(   44) = (   0.6666667   0.0000000   0.1428571), wk =   0.0317460
        k(   45) = (   0.6666667   0.0000000   0.2857143), wk =   0.0317460
        k(   46) = (   0.6666667   0.0000000   0.4285714), wk =   0.0317460
        k(   47) = (   0.6666667   0.0000000   0.5714286), wk =   0.0317460
        k(   48) = (   0.6666667   0.0000000   0.7142857), wk =   0.0317460
        k(   49) = (   0.6666667   0.0000000   0.8571429), wk =   0.0317460
        k(   50) = (   0.6666667   0.3333333   0.0000000), wk =   0.0317460
        k(   51) = (   0.6666667   0.3333333   0.1428571), wk =   0.0317460
        k(   52) = (   0.6666667   0.3333333   0.2857143), wk =   0.0317460
        k(   53) = (   0.6666667   0.3333333   0.4285714), wk =   0.0317460
        k(   54) = (   0.6666667   0.3333333   0.5714286), wk =   0.0317460
        k(   55) = (   0.6666667   0.3333333   0.7142857), wk =   0.0317460
        k(   56) = (   0.6666667   0.3333333   0.8571429), wk =   0.0317460
        k(   57) = (   0.6666667   0.6666667   0.0000000), wk =   0.0317460
        k(   58) = (   0.6666667   0.6666667   0.1428571), wk =   0.0317460
        k(   59) = (   0.6666667   0.6666667   0.2857143), wk =   0.0317460
        k(   60) = (   0.6666667   0.6666667   0.4285714), wk =   0.0317460
        k(   61) = (   0.6666667   0.6666667   0.5714286), wk =   0.0317460
        k(   62) = (   0.6666667   0.6666667   0.7142857), wk =   0.0317460
        k(   63) = (   0.6666667   0.6666667   0.8571429), wk =   0.0317460

     Dense  grid:    12893 G-vectors     FFT dimensions: (  30,  30,  30)

     Estimated max dynamical RAM per process >      17.34Mb

     Estimated total allocated dynamical RAM >      34.69Mb

     Initial potential from superposition of free atoms

     starting charge   31.99557, renormalised to   32.00000
     Starting wfc are random

     total cpu time spent up to now is        0.6 secs

     per-process dynamical memory:    18.4 Mb

     Self-consistent Calculation

     iteration #  1     ecut=    20.00 Ry     beta=0.50
     Davidson diagonalization with overlap
     ethr =  1.00E-02,  avg # of iterations =  7.7
     Davidson diagonalization with overlap
     ethr =  1.00E-02,  avg # of iterations =  2.4
     Davidson diagonalization with overlap
     ethr =  1.00E-02,  avg # of iterations =  1.0

     Threshold (ethr) on eigenvalues was too large:
     Diagonalizing with lowered threshold

     Davidson diagonalization with overlap
     ethr =  7.62E-04,  avg # of iterations =  1.5
     Davidson diagonalization with overlap
     ethr =  7.62E-04,  avg # of iterations =  1.0
     Davidson diagonalization with overlap
     ethr =  7.62E-04,  avg # of iterations =  1.0
 
     Expectation value of exp(iGx):
 (9.853057923057711E-002,-4.518622955522125E-004)   1.00000000000000     
     Electronic Dipole per cell (Ry a.u.) -2.101575161867177E-002
     Ionic Dipole per cell (Ry a.u.)   115.173552519665     
 
     Expectation value of exp(iGx):
 (9.866413820804314E-002,-4.885580375286145E-004)   1.00000000000000     
     Electronic Dipole per cell (Ry a.u.) -2.269165590045838E-002
     Ionic Dipole per cell (Ry a.u.)   115.173552519665     
 
     Expectation value of exp(iGx): (0.345262462207571,5.875426158473843E-002)
   1.00000000000000     
     Electronic Dipole per cell (Ry a.u.)  0.772435800365745     
     Ionic Dipole per cell (Ry a.u.)   115.173552519665     
Electronic Dipole on Cartesian axes
           1 -2.101575161867177E-002
           2 -2.269165590045838E-002
           3  0.772435800365745     
Ionic Dipole on Cartesian axes
           1   115.173552519665     
           2   115.173552519665     
           3   115.173552519665     

     total cpu time spent up to now is       15.8 secs

     total energy              =     -63.06631809 Ry
     Harris-Foulkes estimate   =     -63.00077649 Ry
     estimated scf accuracy    <       0.24738944 Ry

     iteration #  2     ecut=    20.00 Ry     beta=0.50
     Davidson diagonalization with overlap
     ethr =  7.73E-04,  avg # of iterations =  1.0
     Davidson diagonalization with overlap
     ethr =  7.73E-04,  avg # of iterations =  1.0
     Davidson diagonalization with overlap
     ethr =  7.73E-04,  avg # of iterations =  1.0
 
     Expectation value of exp(iGx):
 (9.347508534964273E-002,-1.715650322702544E-004)   1.00000000000000     
     Electronic Dipole per cell (Ry a.u.) -8.410955231462411E-003
     Ionic Dipole per cell (Ry a.u.)   115.173552519665     
 
     Expectation value of exp(iGx):
 (9.353189278327499E-002,-1.681034610290868E-004)   1.00000000000000     
     Electronic Dipole per cell (Ry a.u.) -8.236247096352851E-003
     Ionic Dipole per cell (Ry a.u.)   115.173552519665     
 
     Expectation value of exp(iGx): (0.337101235808004,6.346953341087472E-002)
   1.00000000000000     
     Electronic Dipole per cell (Ry a.u.)  0.852831409763912     
     Ionic Dipole per cell (Ry a.u.)   115.173552519665     
Electronic Dipole on Cartesian axes
           1 -8.410955231462411E-003
           2 -8.236247096352851E-003
           3  0.852831409763912     
Ionic Dipole on Cartesian axes
           1   115.173552519665     
           2   115.173552519665     
           3   115.173552519665     

     total cpu time spent up to now is       21.5 secs

     total energy              =     -63.06660091 Ry
     Harris-Foulkes estimate   =     -62.95691264 Ry
     estimated scf accuracy    <       0.04207306 Ry

     iteration #  3     ecut=    20.00 Ry     beta=0.50
     Davidson diagonalization with overlap
     ethr =  1.31E-04,  avg # of iterations =  1.0
     Davidson diagonalization with overlap
     ethr =  1.31E-04,  avg # of iterations =  1.0
     Davidson diagonalization with overlap
     ethr =  1.31E-04,  avg # of iterations =  1.0
 
     Expectation value of exp(iGx):
 (9.001161121290045E-002,-9.890967715449285E-005)   1.00000000000000     
     Electronic Dipole per cell (Ry a.u.) -5.035620315551437E-003
     Ionic Dipole per cell (Ry a.u.)   115.173552519665     
 
     Expectation value of exp(iGx):
 (9.003882424392529E-002,-4.494833811931010E-005)   1.00000000000000     
     Electronic Dipole per cell (Ry a.u.) -2.287687456838036E-003
     Ionic Dipole per cell (Ry a.u.)   115.173552519665     
 
     Expectation value of exp(iGx): (0.330519822525619,6.509060184647186E-002)
   1.00000000000000     
     Electronic Dipole per cell (Ry a.u.)  0.891069206564855     
     Ionic Dipole per cell (Ry a.u.)   115.173552519665     
Electronic Dipole on Cartesian axes
           1 -5.035620315551437E-003
           2 -2.287687456838036E-003
           3  0.891069206564855     
Ionic Dipole on Cartesian axes
           1   115.173552519665     
           2   115.173552519665     
           3   115.173552519665     

     total cpu time spent up to now is       27.1 secs

     total energy              =     -63.06899092 Ry
     Harris-Foulkes estimate   =     -62.95290661 Ry
     estimated scf accuracy    <       0.00068065 Ry

     iteration #  4     ecut=    20.00 Ry     beta=0.50
     Davidson diagonalization with overlap
     ethr =  2.13E-06,  avg # of iterations =  3.4
     Davidson diagonalization with overlap
     ethr =  2.13E-06,  avg # of iterations =  1.0
     Davidson diagonalization with overlap
     ethr =  2.13E-06,  avg # of iterations =  1.0
 
     Expectation value of exp(iGx):
 (8.966047614543718E-002,2.697592019308867E-006)   1.00000000000000     
     Electronic Dipole per cell (Ry a.u.)  1.378758269435375E-004
     Ionic Dipole per cell (Ry a.u.)   115.173552519665     
 
     Expectation value of exp(iGx):
 (8.967030492876105E-002,-4.122860498962121E-006)   1.00000000000000     
     Electronic Dipole per cell (Ry a.u.) -2.106992047797051E-004
     Ionic Dipole per cell (Ry a.u.)   115.173552519665     
 
     Expectation value of exp(iGx): (0.329317449037266,6.715987609599333E-002)
   1.00000000000000     
     Electronic Dipole per cell (Ry a.u.)  0.921919668317403     
     Ionic Dipole per cell (Ry a.u.)   115.173552519665     
Electronic Dipole on Cartesian axes
           1  1.378758269435375E-004
           2 -2.106992047797051E-004
           3  0.921919668317403     
Ionic Dipole on Cartesian axes
           1   115.173552519665     
           2   115.173552519665     
           3   115.173552519665     

     total cpu time spent up to now is       33.2 secs

     total energy              =     -63.06909612 Ry
     Harris-Foulkes estimate   =     -62.95300094 Ry
     estimated scf accuracy    <       0.00000338 Ry

     iteration #  5     ecut=    20.00 Ry     beta=0.50
     Davidson diagonalization with overlap
     ethr =  1.06E-08,  avg # of iterations =  4.2
     Davidson diagonalization with overlap
     ethr =  1.06E-08,  avg # of iterations =  1.1
     Davidson diagonalization with overlap
     ethr =  1.06E-08,  avg # of iterations =  1.0
 
     Expectation value of exp(iGx):
 (8.962894827734112E-002,1.200237803732572E-006)   1.00000000000000     
     Electronic Dipole per cell (Ry a.u.)  6.136657772122891E-005
     Ionic Dipole per cell (Ry a.u.)   115.173552519665     
 
     Expectation value of exp(iGx):
 (8.962911877899471E-002,-5.105031063849458E-007)   1.00000000000000     
     Electronic Dipole per cell (Ry a.u.) -2.610130164540554E-005
     Ionic Dipole per cell (Ry a.u.)   115.173552519665     
 
     Expectation value of exp(iGx): (0.329110272381365,6.750263367823123E-002)
   1.00000000000000     
     Electronic Dipole per cell (Ry a.u.)  0.927065377772654     
     Ionic Dipole per cell (Ry a.u.)   115.173552519665     
Electronic Dipole on Cartesian axes
           1  6.136657772122891E-005
           2 -2.610130164540554E-005
           3  0.927065377772654     
Ionic Dipole on Cartesian axes
           1   115.173552519665     
           2   115.173552519665     
           3   115.173552519665     

     total cpu time spent up to now is       40.2 secs

     total energy              =     -63.06909800 Ry
     Harris-Foulkes estimate   =     -62.95299700 Ry
     estimated scf accuracy    <       0.00000043 Ry

     iteration #  6     ecut=    20.00 Ry     beta=0.50
     Davidson diagonalization with overlap
     ethr =  1.35E-09,  avg # of iterations =  2.1
     Davidson diagonalization with overlap
     ethr =  1.35E-09,  avg # of iterations =  1.0
     Davidson diagonalization with overlap
     ethr =  1.35E-09,  avg # of iterations =  1.0
 
     Expectation value of exp(iGx):
 (8.964281779510258E-002,9.381184648893824E-008)   1.00000000000000     
     Electronic Dipole per cell (Ry a.u.)  4.795734014524334E-006
     Ionic Dipole per cell (Ry a.u.)   115.173552519665     
 
     Expectation value of exp(iGx):
 (8.964281973973906E-002,-6.176316678202317E-007)   1.00000000000000     
     Electronic Dipole per cell (Ry a.u.) -3.157380698035038E-005
     Ionic Dipole per cell (Ry a.u.)   115.173552519665     
 
     Expectation value of exp(iGx): (0.329142844386594,6.746720206948950E-002)
   1.00000000000000     
     Electronic Dipole per cell (Ry a.u.)  0.926502709498773     
     Ionic Dipole per cell (Ry a.u.)   115.173552519665     
Electronic Dipole on Cartesian axes
           1  4.795734014524334E-006
           2 -3.157380698035038E-005
           3  0.926502709498773     
Ionic Dipole on Cartesian axes
           1   115.173552519665     
           2   115.173552519665     
           3   115.173552519665     

     total cpu time spent up to now is       46.2 secs

     total energy              =     -63.06909802 Ry
     Harris-Foulkes estimate   =     -62.95299790 Ry
     estimated scf accuracy    <       0.00000005 Ry

     iteration #  7     ecut=    20.00 Ry     beta=0.50
     Davidson diagonalization with overlap
     ethr =  1.67E-10,  avg # of iterations =  2.2
     Davidson diagonalization with overlap
     ethr =  1.67E-10,  avg # of iterations =  1.0
     Davidson diagonalization with overlap
     ethr =  1.67E-10,  avg # of iterations =  1.0
 
     Expectation value of exp(iGx):
 (8.964543655800526E-002,-4.584899313204665E-007)   1.00000000000000     
     Electronic Dipole per cell (Ry a.u.) -2.343767454762237E-005
     Ionic Dipole per cell (Ry a.u.)   115.173552519665     
 
     Expectation value of exp(iGx):
 (8.964545492163023E-002,-4.547218803736611E-007)   1.00000000000000     
     Electronic Dipole per cell (Ry a.u.) -2.324504973970332E-005
     Ionic Dipole per cell (Ry a.u.)   115.173552519665     
 
     Expectation value of exp(iGx): (0.329149697031575,6.746096222682796E-002)
   1.00000000000000     
     Electronic Dipole per cell (Ry a.u.)  0.926400569620140     
     Ionic Dipole per cell (Ry a.u.)   115.173552519665     
Electronic Dipole on Cartesian axes
           1 -2.343767454762237E-005
           2 -2.324504973970332E-005
           3  0.926400569620140     
Ionic Dipole on Cartesian axes
           1   115.173552519665     
           2   115.173552519665     
           3   115.173552519665     

     total cpu time spent up to now is       52.3 secs

     End of self-consistent calculation

          k = 0.0000 0.0000 0.0000 (  1575 PWs)   bands (ev):

    -5.5816  -1.3524  -1.3524  -1.3523  -1.3523  -1.3523  -1.3523   3.5784
     3.5784   3.5796   3.5796   3.5796   3.5796   6.4873   6.4889   6.4889

          k = 0.0000 0.0000 0.1429 (  1599 PWs)   bands (ev):

    -5.4905  -2.4220  -1.3216  -1.3216  -1.3216  -1.3216  -0.1753   3.3335
     3.3336   3.3336   3.3336   3.6603   3.6604   5.9839   6.1476   6.1476

          k = 0.0000 0.0000 0.2857 (  1582 PWs)   bands (ev):

    -5.2182  -3.3590  -1.2481  -1.2481  -1.2481  -1.2481   1.0776   2.8850
     2.8850   2.8850   2.8850   3.9043   3.9044   4.9086   5.4912   5.4913

          k = 0.0000 0.0000 0.4286 (  1602 PWs)   bands (ev):

    -4.7680  -4.1454  -1.1842  -1.1842  -1.1841  -1.1841   2.3695   2.5820
     2.5820   2.5821   2.5821   3.6630   4.3031   4.3031   4.8436   4.8437

          k = 0.0000 0.0000 0.5714 (  1602 PWs)   bands (ev):

    -4.7680  -4.1454  -1.1842  -1.1842  -1.1841  -1.1841   2.3695   2.5820
     2.5820   2.5821   2.5821   3.6630   4.3031   4.3031   4.8436   4.8437

          k = 0.0000 0.0000 0.7143 (  1582 PWs)   bands (ev):

    -5.2182  -3.3590  -1.2481  -1.2481  -1.2481  -1.2481   1.0776   2.8850
     2.8850   2.8850   2.8850   3.9043   3.9044   4.9086   5.4912   5.4913

          k = 0.0000 0.0000 0.8571 (  1599 PWs)   bands (ev):

    -5.4905  -2.4220  -1.3216  -1.3216  -1.3216  -1.3216  -0.1753   3.3335
     3.3336   3.3336   3.3336   3.6603   3.6604   5.9839   6.1476   6.1476

          k = 0.0000 0.3333 0.0000 (  1594 PWs)   bands (ev):

    -5.0878  -3.6386  -1.2226  -1.2226  -1.2225  -1.2225   1.5056   2.7566
     2.7567   2.7567   2.7567   4.0209   4.0221   4.5033   5.2673   5.2692

          k = 0.0000 0.3333 0.1429 (  1586 PWs)   bands (ev):

    -4.9998  -3.5638  -2.1372  -1.6222  -0.8462  -0.3010   1.3720   2.1957
     2.6303   3.1657   3.5246   3.6882   3.9253   4.0207   4.9214   5.6975

          k = 0.0000 0.3333 0.2857 (  1602 PWs)   bands (ev):

    -4.7375  -3.3445  -2.9833  -2.0767  -0.4418   0.5745   1.0087   1.9682
     2.7516   3.0507   3.0709   3.8603   4.0920   4.2025   4.2507   5.9697

          k = 0.0000 0.3333 0.4286 (  1598 PWs)   bands (ev):

    -4.3062  -3.7158  -2.9976  -2.5566   0.0181   0.5215   1.4021   2.0789
     2.2234   2.4673   3.0860   3.6012   4.2731   4.4205   4.7474   5.5854

          k = 0.0000 0.3333 0.5714 (  1598 PWs)   bands (ev):

    -4.3062  -3.7158  -2.9976  -2.5566   0.0181   0.5215   1.4021   2.0789
     2.2233   2.4673   3.0860   3.6013   4.2731   4.4204   4.7474   5.5854

          k = 0.0000 0.3333 0.7143 (  1602 PWs)   bands (ev):

    -4.7375  -3.3445  -2.9833  -2.0767  -0.4418   0.5745   1.0088   1.9682
     2.7515   3.0506   3.0709   3.8604   4.0920   4.2025   4.2507   5.9697

          k = 0.0000 0.3333 0.8571 (  1586 PWs)   bands (ev):

    -4.9998  -3.5638  -2.1372  -1.6222  -0.8462  -0.3010   1.3721   2.1958
     2.6303   3.1657   3.5245   3.6882   3.9253   4.0207   4.9214   5.6974

          k = 0.0000 0.6667 0.0000 (  1594 PWs)   bands (ev):

    -5.0878  -3.6386  -1.2226  -1.2226  -1.2225  -1.2225   1.5056   2.7566
     2.7567   2.7567   2.7567   4.0209   4.0221   4.5033   5.2673   5.2692

          k = 0.0000 0.6667 0.1429 (  1586 PWs)   bands (ev):

    -4.9998  -3.5638  -2.1372  -1.6222  -0.8462  -0.3010   1.3721   2.1958
     2.6303   3.1657   3.5245   3.6882   3.9253   4.0207   4.9214   5.6974

          k = 0.0000 0.6667 0.2857 (  1602 PWs)   bands (ev):

    -4.7375  -3.3445  -2.9833  -2.0767  -0.4418   0.5745   1.0088   1.9682
     2.7515   3.0506   3.0709   3.8604   4.0920   4.2025   4.2507   5.9697

          k = 0.0000 0.6667 0.4286 (  1598 PWs)   bands (ev):

    -4.3062  -3.7158  -2.9976  -2.5566   0.0181   0.5215   1.4021   2.0789
     2.2233   2.4673   3.0860   3.6013   4.2731   4.4204   4.7474   5.5854

          k = 0.0000 0.6667 0.5714 (  1598 PWs)   bands (ev):

    -4.3062  -3.7158  -2.9976  -2.5566   0.0181   0.5215   1.4021   2.0789
     2.2234   2.4673   3.0860   3.6012   4.2731   4.4205   4.7474   5.5854

          k = 0.0000 0.6667 0.7143 (  1602 PWs)   bands (ev):

    -4.7375  -3.3445  -2.9833  -2.0767  -0.4418   0.5745   1.0087   1.9682
     2.7516   3.0507   3.0709   3.8603   4.0920   4.2025   4.2507   5.9697

          k = 0.0000 0.6667 0.8571 (  1586 PWs)   bands (ev):

    -4.9998  -3.5638  -2.1372  -1.6222  -0.8462  -0.3010   1.3720   2.1957
     2.6303   3.1657   3.5246   3.6882   3.9253   4.0207   4.9214   5.6975

          k = 0.3333 0.0000 0.0000 (  1594 PWs)   bands (ev):

    -5.0878  -3.6386  -1.2226  -1.2226  -1.2225  -1.2225   1.5056   2.7566
     2.7567   2.7567   2.7567   4.0209   4.0221   4.5033   5.2673   5.2692

          k = 0.3333 0.0000 0.1429 (  1586 PWs)   bands (ev):

    -4.9998  -3.5638  -2.1372  -1.6222  -0.8462  -0.3010   1.3720   2.1957
     2.6303   3.1657   3.5246   3.6882   3.9253   4.0207   4.9214   5.6975

          k = 0.3333 0.0000 0.2857 (  1602 PWs)   bands (ev):

    -4.7375  -3.3445  -2.9833  -2.0767  -0.4418   0.5745   1.0087   1.9682
     2.7516   3.0507   3.0709   3.8603   4.0920   4.2025   4.2507   5.9697

          k = 0.3333 0.0000 0.4286 (  1598 PWs)   bands (ev):

    -4.3062  -3.7158  -2.9976  -2.5566   0.0181   0.5215   1.4021   2.0789
     2.2233   2.4673   3.0860   3.6012   4.2731   4.4205   4.7474   5.5854

          k = 0.3333 0.0000 0.5714 (  1598 PWs)   bands (ev):

    -4.3062  -3.7158  -2.9976  -2.5566   0.0181   0.5215   1.4021   2.0789
     2.2233   2.4673   3.0860   3.6013   4.2731   4.4204   4.7474   5.5854

          k = 0.3333 0.0000 0.7143 (  1602 PWs)   bands (ev):

    -4.7375  -3.3445  -2.9833  -2.0767  -0.4418   0.5745   1.0088   1.9682
     2.7515   3.0506   3.0709   3.8604   4.0920   4.2025   4.2507   5.9697

          k = 0.3333 0.0000 0.8571 (  1586 PWs)   bands (ev):

    -4.9998  -3.5638  -2.1372  -1.6222  -0.8462  -0.3010   1.3721   2.1958
     2.6303   3.1657   3.5245   3.6882   3.9253   4.0207   4.9214   5.6974

          k = 0.3333 0.3333 0.0000 (  1602 PWs)   bands (ev):

    -4.6122  -3.2418  -3.2418  -2.2369  -0.2950   0.8540   0.8540   1.9698
     2.7853   2.8409   2.8409   4.0238   4.1432   4.1432   4.3342   5.9167

          k = 0.3333 0.3333 0.1429 (  1596 PWs)   bands (ev):

    -4.5302  -3.1935  -3.1935  -2.4033  -0.3445   0.5321   0.5322   2.2091
     2.3851   3.1357   3.1357   4.2717   4.2717   4.3997   4.6292   5.8277

          k = 0.3333 0.3333 0.2857 (  1598 PWs)   bands (ev):

    -4.2880  -3.0721  -3.0721  -2.8472  -0.2600  -0.0171  -0.0171   1.3736
     3.3211   3.5700   3.5701   4.5843   4.5843   4.5896   5.3752   5.5797

          k = 0.3333 0.3333 0.4286 (  1592 PWs)   bands (ev):

    -3.8991  -3.3950  -2.9572  -2.9571  -0.3885  -0.3885   0.0830   0.6428
     3.8273   3.8273   4.4023   4.7883   4.7883   4.8826   5.2359   5.2934

          k = 0.3333 0.3333 0.5714 (  1592 PWs)   bands (ev):

    -3.8991  -3.3950  -2.9572  -2.9571  -0.3885  -0.3885   0.0830   0.6428
     3.8273   3.8273   4.4023   4.7883   4.7883   4.8826   5.2360   5.2934

          k = 0.3333 0.3333 0.7143 (  1598 PWs)   bands (ev):

    -4.2880  -3.0721  -3.0721  -2.8472  -0.2600  -0.0171  -0.0171   1.3736
     3.3211   3.5701   3.5701   4.5843   4.5843   4.5896   5.3752   5.5797

          k = 0.3333 0.3333 0.8571 (  1596 PWs)   bands (ev):

    -4.5302  -3.1935  -3.1935  -2.4033  -0.3444   0.5321   0.5322   2.2091
     2.3851   3.1357   3.1357   4.2717   4.2717   4.3997   4.6292   5.8277

          k = 0.3333 0.6667 0.0000 (  1602 PWs)   bands (ev):

    -4.6121  -3.2418  -3.2418  -2.2369  -0.2950   0.8541   0.8541   1.9699
     2.7853   2.8409   2.8409   4.0238   4.1432   4.1433   4.3342   5.9167

          k = 0.3333 0.6667 0.1429 (  1596 PWs)   bands (ev):

    -4.5302  -3.1935  -3.1935  -2.4033  -0.3445   0.5322   0.5322   2.2090
     2.3851   3.1357   3.1357   4.2717   4.2717   4.3996   4.6292   5.8277

          k = 0.3333 0.6667 0.2857 (  1598 PWs)   bands (ev):

    -4.2880  -3.0721  -3.0721  -2.8472  -0.2600  -0.0171  -0.0170   1.3736
     3.3211   3.5700   3.5701   4.5843   4.5843   4.5896   5.3752   5.5797

          k = 0.3333 0.6667 0.4286 (  1592 PWs)   bands (ev):

    -3.8991  -3.3950  -2.9572  -2.9571  -0.3885  -0.3885   0.0830   0.6428
     3.8273   3.8273   4.4023   4.7883   4.7883   4.8825   5.2359   5.2934

          k = 0.3333 0.6667 0.5714 (  1592 PWs)   bands (ev):

    -3.8991  -3.3950  -2.9572  -2.9571  -0.3885  -0.3885   0.0830   0.6428
     3.8273   3.8273   4.4023   4.7883   4.7883   4.8825   5.2359   5.2934

          k = 0.3333 0.6667 0.7143 (  1598 PWs)   bands (ev):

    -4.2880  -3.0721  -3.0721  -2.8472  -0.2600  -0.0171  -0.0170   1.3736
     3.3211   3.5700   3.5701   4.5843   4.5843   4.5896   5.3752   5.5797

          k = 0.3333 0.6667 0.8571 (  1596 PWs)   bands (ev):

    -4.5302  -3.1935  -3.1935  -2.4033  -0.3445   0.5322   0.5322   2.2090
     2.3851   3.1357   3.1357   4.2717   4.2717   4.3996   4.6292   5.8277

          k = 0.6667 0.0000 0.0000 (  1594 PWs)   bands (ev):

    -5.0878  -3.6386  -1.2226  -1.2226  -1.2225  -1.2225   1.5056   2.7566
     2.7567   2.7567   2.7567   4.0209   4.0221   4.5033   5.2673   5.2692

          k = 0.6667 0.0000 0.1429 (  1586 PWs)   bands (ev):

    -4.9998  -3.5638  -2.1372  -1.6222  -0.8462  -0.3010   1.3721   2.1958
     2.6303   3.1657   3.5245   3.6882   3.9253   4.0207   4.9214   5.6974

          k = 0.6667 0.0000 0.2857 (  1602 PWs)   bands (ev):

    -4.7375  -3.3445  -2.9833  -2.0767  -0.4418   0.5745   1.0088   1.9682
     2.7515   3.0506   3.0709   3.8604   4.0920   4.2025   4.2507   5.9697

          k = 0.6667 0.0000 0.4286 (  1598 PWs)   bands (ev):

    -4.3062  -3.7158  -2.9976  -2.5566   0.0181   0.5215   1.4021   2.0789
     2.2233   2.4673   3.0860   3.6013   4.2731   4.4204   4.7474   5.5854

          k = 0.6667 0.0000 0.5714 (  1598 PWs)   bands (ev):

    -4.3062  -3.7158  -2.9976  -2.5566   0.0181   0.5215   1.4021   2.0789
     2.2233   2.4673   3.0860   3.6012   4.2731   4.4205   4.7474   5.5854

          k = 0.6667 0.0000 0.7143 (  1602 PWs)   bands (ev):

    -4.7375  -3.3445  -2.9833  -2.0767  -0.4418   0.5745   1.0087   1.9682
     2.7516   3.0507   3.0709   3.8603   4.0920   4.2025   4.2507   5.9697

          k = 0.6667 0.0000 0.8571 (  1586 PWs)   bands (ev):

    -4.9998  -3.5638  -2.1372  -1.6222  -0.8462  -0.3010   1.3720   2.1957
     2.6303   3.1657   3.5246   3.6882   3.9253   4.0207   4.9214   5.6975

          k = 0.6667 0.3333 0.0000 (  1602 PWs)   bands (ev):

    -4.6121  -3.2418  -3.2418  -2.2369  -0.2950   0.8541   0.8541   1.9699
     2.7853   2.8409   2.8409   4.0238   4.1432   4.1433   4.3342   5.9167

          k = 0.6667 0.3333 0.1429 (  1596 PWs)   bands (ev):

    -4.5302  -3.1935  -3.1935  -2.4033  -0.3445   0.5322   0.5322   2.2090
     2.3851   3.1357   3.1357   4.2717   4.2717   4.3996   4.6292   5.8277

          k = 0.6667 0.3333 0.2857 (  1598 PWs)   bands (ev):

    -4.2880  -3.0721  -3.0721  -2.8472  -0.2600  -0.0171  -0.0170   1.3736
     3.3211   3.5700   3.5701   4.5843   4.5843   4.5896   5.3752   5.5797

          k = 0.6667 0.3333 0.4286 (  1592 PWs)   bands (ev):

    -3.8991  -3.3950  -2.9572  -2.9571  -0.3885  -0.3885   0.0830   0.6428
     3.8273   3.8273   4.4023   4.7883   4.7883   4.8825   5.2359   5.2934

          k = 0.6667 0.3333 0.5714 (  1592 PWs)   bands (ev):

    -3.8991  -3.3950  -2.9572  -2.9571  -0.3885  -0.3885   0.0830   0.6428
     3.8273   3.8273   4.4023   4.7883   4.7883   4.8825   5.2359   5.2934

          k = 0.6667 0.3333 0.7143 (  1598 PWs)   bands (ev):

    -4.2880  -3.0721  -3.0721  -2.8472  -0.2600  -0.0171  -0.0170   1.3736
     3.3211   3.5700   3.5701   4.5843   4.5843   4.5896   5.3752   5.5797

          k = 0.6667 0.3333 0.8571 (  1596 PWs)   bands (ev):

    -4.5302  -3.1935  -3.1935  -2.4033  -0.3445   0.5322   0.5322   2.2090
     2.3851   3.1357   3.1357   4.2717   4.2717   4.3996   4.6292   5.8277

          k = 0.6667 0.6667 0.0000 (  1602 PWs)   bands (ev):

    -4.6122  -3.2418  -3.2418  -2.2369  -0.2950   0.8540   0.8540   1.9698
     2.7853   2.8409   2.8409   4.0238   4.1432   4.1432   4.3342   5.9167

          k = 0.6667 0.6667 0.1429 (  1596 PWs)   bands (ev):

    -4.5302  -3.1935  -3.1935  -2.4033  -0.3444   0.5321   0.5322   2.2091
     2.3851   3.1357   3.1357   4.2717   4.2717   4.3997   4.6292   5.8277

          k = 0.6667 0.6667 0.2857 (  1598 PWs)   bands (ev):

    -4.2880  -3.0721  -3.0721  -2.8472  -0.2600  -0.0171  -0.0171   1.3736
     3.3211   3.5701   3.5701   4.5843   4.5843   4.5896   5.3752   5.5797

          k = 0.6667 0.6667 0.4286 (  1592 PWs)   bands (ev):

    -3.8991  -3.3950  -2.9572  -2.9571  -0.3885  -0.3885   0.0830   0.6428
     3.8273   3.8273   4.4023   4.7883   4.7883   4.8826   5.2360   5.2934

          k = 0.6667 0.6667 0.5714 (  1592 PWs)   bands (ev):

    -3.8991  -3.3950  -2.9572  -2.9571  -0.3885  -0.3885   0.0830   0.6428
     3.8273   3.8273   4.4023   4.7883   4.7883   4.8826   5.2359   5.2934

          k = 0.6667 0.6667 0.7143 (  1598 PWs)   bands (ev):

    -4.2880  -3.0721  -3.0721  -2.8472  -0.2600  -0.0171  -0.0171   1.3736
     3.3211   3.5700   3.5701   4.5843   4.5843   4.5896   5.3752   5.5797

          k = 0.6667 0.6667 0.8571 (  1596 PWs)   bands (ev):

    -4.5302  -3.1935  -3.1935  -2.4033  -0.3445   0.5321   0.5322   2.2091
     2.3851   3.1357   3.1357   4.2717   4.2717   4.3997   4.6292   5.8277

     highest occupied level (ev):     6.4889

!    total energy              =     -63.06909807 Ry
     Harris-Foulkes estimate   =     -62.95299811 Ry
     estimated scf accuracy    <          4.2E-09 Ry

     The total energy is the sum of the following terms:

     one-electron contribution =      19.83195866 Ry
     hartree contribution      =       4.30330876 Ry
     xc contribution           =     -19.35642333 Ry
     ewald contribution        =     -67.73184220 Ry

     convergence has been achieved in   7 iterations

     Writing output data file silicon.save
 
     init_run     :      0.56s CPU      0.57s WALL (       1 calls)
     electrons    :     51.30s CPU     51.74s WALL (       1 calls)

     Called by init_run:
     wfcinit      :      0.51s CPU      0.51s WALL (       1 calls)
     potinit      :      0.01s CPU      0.01s WALL (       1 calls)

     Called by electrons:
     c_bands      :     40.10s CPU     40.39s WALL (      24 calls)
     sum_band     :      1.70s CPU      1.71s WALL (       8 calls)
     v_of_rho     :      0.07s CPU      0.07s WALL (       8 calls)
     mix_rho      :      0.01s CPU      0.01s WALL (       8 calls)

     Called by c_bands:
     init_us_2    :      0.57s CPU      0.57s WALL (    2079 calls)
     cegterg      :     37.84s CPU     38.12s WALL (    1512 calls)

     Called by sum_band:

     Called by *egterg:
     h_psi        :     31.85s CPU     32.10s WALL (    4137 calls)
     g_psi        :      0.34s CPU      0.35s WALL (    2562 calls)
     cdiaghg      :      2.17s CPU      2.16s WALL (    3759 calls)

     Called by h_psi:
     h_psi:pot    :     22.26s CPU     22.41s WALL (    4137 calls)
     h_psi:calbec :      1.39s CPU      1.34s WALL (    4137 calls)
     add_vuspsi   :      1.19s CPU      1.21s WALL (    4137 calls)

     General routines
     calbec       :      1.39s CPU      1.34s WALL (    4137 calls)
     fft          :      0.02s CPU      0.02s WALL (      89 calls)
     fftw         :     19.17s CPU     18.76s WALL (  122644 calls)
 
     Parallel routines
     fft_scatter  :      4.54s CPU      4.56s WALL (  122733 calls)

     Electric-field routines
     h_epsi_set   :      6.56s CPU      6.69s WALL (      24 calls)
     h_epsi_apply :      9.51s CPU      9.53s WALL (    4074 calls)
     c_phase_fiel :      2.86s CPU      2.87s WALL (      21 calls)
 
     PWSCF        :    52.02s CPU        52.52s WALL

 
   This run was terminated on:  16:15:30  18Aug2016            

=------------------------------------------------------------------------------=
   JOB DONE.
=------------------------------------------------------------------------------=
