
     Program PHONON v.5.4.0 (svn rev. 12620M) starts on 28Jul2016 at 11:51:19 

     This program is part of the open-source Quantum ESPRESSO suite
     for quantum simulation of materials; please cite
         "P. Giannozzi et al., J. Phys.:Condens. Matter 21 395502 (2009);
          URL http://www.quantum-espresso.org", 
     in publications or presentations arising from this work. More details at
     http://www.quantum-espresso.org/quote
 
           HOST :    x86_64-pc-linux-gnu
           ARCH :    x86_64
             CC :    icc
            CPP :    cpp
            F90 :    ifort
            F77 :    ifort
         DFLAGS :    -D__INTEL -D__FFTW -D__MPI -D__PARA -D__HDF5
      BLAS LIBS :    -lmkl_intel_lp64  -lmkl_sequential -lmkl_core
    LAPACK LIBS :    
       FFT LIBS :    
      MASS LIBS :    

     Parallel version (MPI), running on     2 processors
     R & G space division:  proc/nbgrp/npool/nimage =       2

     Reading data from directory:
     /home/nvarini/espresso_hdf5/espresso/tempdir/al.save

   Info: using nr1, nr2, nr3 values from input

   Info: using nr1, nr2, nr3 values from input

     IMPORTANT: XC functional enforced from input :
     Exchange-correlation      =  SLA  PZ   NOGX NOGC ( 1  1  0  0 0 0)
     Any further DFT definition will be discarded
     Please, verify this is what you really want

 
     Parallelization info
     --------------------
     sticks:   dense  smooth     PW     G-vecs:    dense   smooth      PW
     Min          60      60     21                  434      434      90
     Max          61      61     22                  435      435      91
     Sum         121     121     43                  869      869     181
 


     Dynamical matrices for ( 4, 4, 4)  uniform grid of q-points
     (   8q-points):
       N         xq(1)         xq(2)         xq(3) 
       1   0.000000000   0.000000000   0.000000000
       2  -0.250000000   0.250000000  -0.250000000
       3   0.500000000  -0.500000000   0.500000000
       4   0.000000000   0.500000000   0.000000000
       5   0.750000000  -0.250000000   0.750000000
       6   0.500000000   0.000000000   0.500000000
       7   0.000000000  -1.000000000   0.000000000
       8  -0.500000000  -1.000000000   0.000000000

     Calculation of q =    0.5000000   0.0000000   0.5000000
 
     Parallelization info
     --------------------
     sticks:   dense  smooth     PW     G-vecs:    dense   smooth      PW
     Min          60      60     30                  434      434     153
     Max          61      61     31                  435      435     154
     Sum         121     121     61                  869      869     307
 


     bravais-lattice index     =            2
     lattice parameter (alat)  =       7.5000  a.u.
     unit-cell volume          =     105.4688 (a.u.)^3
     number of atoms/cell      =            1
     number of atomic types    =            1
     number of electrons       =         3.00
     number of Kohn-Sham states=            6
     kinetic-energy cutoff     =      15.0000  Ry
     charge density cutoff     =      60.0000  Ry
     Exchange-correlation      =  SLA  PZ   NOGX NOGC ( 1  1  0  0 0 0)

     celldm(1)=   7.500000  celldm(2)=   0.000000  celldm(3)=   0.000000
     celldm(4)=   0.000000  celldm(5)=   0.000000  celldm(6)=   0.000000

     crystal axes: (cart. coord. in units of alat)
               a(1) = (  -0.500000   0.000000   0.500000 )  
               a(2) = (   0.000000   0.500000   0.500000 )  
               a(3) = (  -0.500000   0.500000   0.000000 )  

     reciprocal axes: (cart. coord. in units 2 pi/alat)
               b(1) = ( -1.000000 -1.000000  1.000000 )  
               b(2) = (  1.000000  1.000000  1.000000 )  
               b(3) = ( -1.000000  1.000000 -1.000000 )  


     PseudoPot. # 1 for Al read from file:
     /home/nvarini/espresso_hdf5/espresso/pseudo/Al.pz-vbc.UPF
     MD5 check sum: 614279c88ff8d45c90147292d03ed420
     Pseudo is Norm-conserving, Zval =  3.0
     Generated by new atomic code, or converted to UPF format
     Using radial grid of  171 points,  2 beta functions with: 
                l(1) =   0
                l(2) =   1

     atomic species   valence    mass     pseudopotential
        Al             3.00    26.98000     Al( 1.00)

     48 Sym. Ops., with inversion, found



   Cartesian axes

     site n.     atom                  positions (alat units)
         1           Al  tau(   1) = (   0.0000000   0.0000000   0.0000000  )

     number of k points=   328  Methfessel-Paxton smearing, width (Ry)=  0.0500

     Number of k-points >= 100: set verbosity='high' to print them.

     Dense  grid:      869 G-vectors     FFT dimensions: (  15,  15,  15)

     Largest allocated arrays     est. size (Mb)     dimensions
        Kohn-Sham Wavefunctions         0.01 Mb     (      57,    6)
        NL pseudopotentials             0.00 Mb     (      57,    4)
        Each V/rho on FFT grid          0.03 Mb     (    1800)
        Each G-vector array             0.00 Mb     (     435)
        G-vector shells                 0.00 Mb     (      31)
     Largest temporary arrays     est. size (Mb)     dimensions
        Auxiliary wavefunctions         0.02 Mb     (      57,   24)
        Each subspace H/S matrix        0.01 Mb     (      24,   24)
        Each <psi_i|beta_j> matrix      0.00 Mb     (       4,    6)

     The potential is recalculated from file :
     /home/nvarini/espresso_hdf5/espresso/tempdir/_ph0/al.q_6/al.save/charge-density.hdf5

     Starting wfc are    4 atomic +    2 random wfc

     Band Structure Calculation
     Davidson diagonalization with overlap

     ethr =  3.33E-10,  avg # of iterations = 13.4

     total cpu time spent up to now is        2.6 secs

     End of band structure calculation

     Number of k-points >= 100: set verbosity='high' to print the bands.

     the Fermi energy is     8.1818 ev

     Writing output data file al.save

                                                                                

     bravais-lattice index     =            2
     lattice parameter (alat)  =       7.5000  a.u.
     unit-cell volume          =     105.4688 (a.u.)^3
     number of atoms/cell      =            1
     number of atomic types    =            1
     kinetic-energy cut-off    =      15.0000  Ry
     charge density cut-off    =      60.0000  Ry
     convergence threshold     =      1.0E-10
     beta                      =       0.7000
     number of iterations used =            4
     Exchange-correlation      =  SLA  PZ   NOGX NOGC ( 1  1  0  0 0 0)


     celldm(1)=    7.50000  celldm(2)=    0.00000  celldm(3)=    0.00000
     celldm(4)=    0.00000  celldm(5)=    0.00000  celldm(6)=    0.00000

     crystal axes: (cart. coord. in units of alat)
               a(1) = ( -0.5000  0.0000  0.5000 )  
               a(2) = (  0.0000  0.5000  0.5000 )  
               a(3) = ( -0.5000  0.5000  0.0000 )  

     reciprocal axes: (cart. coord. in units 2 pi/alat)
               b(1) = ( -1.0000 -1.0000  1.0000 )  
               b(2) = (  1.0000  1.0000  1.0000 )  
               b(3) = ( -1.0000  1.0000 -1.0000 )  


     Atoms inside the unit cell: 

     Cartesian axes

     site n.  atom      mass           positions (alat units)
        1     Al  26.9800   tau(    1) = (    0.00000    0.00000    0.00000  )

     Computing dynamical matrix for 
                    q = (   0.5000000   0.0000000   0.5000000 )
 
      4 Sym.Ops. (no q -> -q+G )


     G cutoff =   85.4897  (    435 G-vectors)     FFT grid: ( 15, 15, 15)

     number of k points=   328  Methfessel-Paxton smearing, width (Ry)=  0.0500

     PseudoPot. # 1 for Al read from file:
     /home/nvarini/espresso_hdf5/espresso/pseudo/Al.pz-vbc.UPF
     MD5 check sum: 614279c88ff8d45c90147292d03ed420
     Pseudo is Norm-conserving, Zval =  3.0
     Generated by new atomic code, or converted to UPF format
     Using radial grid of  171 points,  2 beta functions with: 
                l(1) =   0
                l(2) =   1

     Mode symmetry, C_2v (mm2)  point group:


     Atomic displacements:
     There are   3 irreducible representations

     Representation     1      1 modes -A_1  D_1  S_1  To be done

     Representation     2      1 modes -B_1  D_3  S_3  To be done

     Representation     3      1 modes -B_2  D_4  S_4  To be done



     Alpha used in Ewald sum =   0.7000
     PHONON       :     3.81s CPU         3.94s WALL



     Representation #  1 mode #   1

     Self-consistent Calculation

      iter #   1 total cpu time :     4.3 secs   av.it.:   4.0
      thresh= 1.000E-02 alpha_mix =  0.700 |ddv_scf|^2 =  5.687E-04

      iter #   2 total cpu time :     4.6 secs   av.it.:   5.0
      thresh= 2.385E-03 alpha_mix =  0.700 |ddv_scf|^2 =  1.937E-03

      iter #   3 total cpu time :     4.9 secs   av.it.:   4.2
      thresh= 4.401E-03 alpha_mix =  0.700 |ddv_scf|^2 =  4.012E-08

      iter #   4 total cpu time :     5.2 secs   av.it.:   6.1
      thresh= 2.003E-05 alpha_mix =  0.700 |ddv_scf|^2 =  1.440E-09

      iter #   5 total cpu time :     5.6 secs   av.it.:   5.4
      thresh= 3.795E-06 alpha_mix =  0.700 |ddv_scf|^2 =  6.566E-11

     End of self-consistent calculation

     Convergence has been achieved 


     Representation #  2 mode #   2

     Self-consistent Calculation

      iter #   1 total cpu time :     6.2 secs   av.it.:   3.3
      thresh= 1.000E-02 alpha_mix =  0.700 |ddv_scf|^2 =  1.779E-07

      iter #   2 total cpu time :     6.5 secs   av.it.:   5.5
      thresh= 4.217E-05 alpha_mix =  0.700 |ddv_scf|^2 =  1.281E-08

      iter #   3 total cpu time :     6.8 secs   av.it.:   5.1
      thresh= 1.132E-05 alpha_mix =  0.700 |ddv_scf|^2 =  1.890E-10

      iter #   4 total cpu time :     7.1 secs   av.it.:   5.3
      thresh= 1.375E-06 alpha_mix =  0.700 |ddv_scf|^2 =  1.295E-13

     End of self-consistent calculation

     Convergence has been achieved 


     Representation #  3 mode #   3

     Self-consistent Calculation

      iter #   1 total cpu time :     7.8 secs   av.it.:   3.6
      thresh= 1.000E-02 alpha_mix =  0.700 |ddv_scf|^2 =  5.047E-06

      iter #   2 total cpu time :     8.1 secs   av.it.:   5.5
      thresh= 2.247E-04 alpha_mix =  0.700 |ddv_scf|^2 =  3.433E-07

      iter #   3 total cpu time :     8.4 secs   av.it.:   5.5
      thresh= 5.859E-05 alpha_mix =  0.700 |ddv_scf|^2 =  2.652E-09

      iter #   4 total cpu time :     8.7 secs   av.it.:   5.3
      thresh= 5.150E-06 alpha_mix =  0.700 |ddv_scf|^2 =  1.028E-12

     End of self-consistent calculation

     Convergence has been achieved 
 
     Number of q in the star =   12
     List of q in the star:
          1   0.500000000   0.000000000   0.500000000
          2  -0.500000000  -0.500000000   0.000000000
          3  -0.500000000   0.500000000   0.000000000
          4  -0.500000000   0.000000000  -0.500000000
          5  -0.500000000   0.000000000   0.500000000
          6   0.500000000   0.000000000  -0.500000000
          7   0.000000000   0.500000000   0.500000000
          8   0.000000000   0.500000000  -0.500000000
          9   0.000000000  -0.500000000  -0.500000000
         10   0.500000000   0.500000000   0.000000000
         11   0.500000000  -0.500000000   0.000000000
         12   0.000000000  -0.500000000   0.500000000

     Diagonalizing the dynamical matrix

     q = (    0.500000000   0.000000000   0.500000000 ) 

 **************************************************************************
     freq (    1) =       4.869250 [THz] =     162.420695 [cm-1]
     freq (    2) =       6.532239 [THz] =     217.892045 [cm-1]
     freq (    3) =       8.528397 [THz] =     284.476695 [cm-1]
 **************************************************************************

     Mode symmetry, C_2v (mm2)  point group:

     freq (  1 -  1) =        162.4  [cm-1]   --> B_1  D_3  S_3      
     freq (  2 -  2) =        217.9  [cm-1]   --> B_2  D_4  S_4      
     freq (  3 -  3) =        284.5  [cm-1]   --> A_1  D_1  S_1      
     electron-phonon interaction  ...

     Gaussian Broadening:   0.005 Ry, ngauss=   0
     DOS =  1.338761 states/spin/Ry/Unit Cell at Ef=  8.321711 eV
     lambda(    1)=  0.0232   gamma=    0.70 GHz
     lambda(    2)=  0.0561   gamma=    3.06 GHz
     lambda(    3)=  1.3194   gamma=  122.68 GHz
     Gaussian Broadening:   0.010 Ry, ngauss=   0
     DOS =  1.881758 states/spin/Ry/Unit Cell at Ef=  8.327076 eV
     lambda(    1)=  0.0650   gamma=    2.77 GHz
     lambda(    2)=  0.0805   gamma=    6.17 GHz
     lambda(    3)=  0.8786   gamma=  114.84 GHz
     Gaussian Broadening:   0.015 Ry, ngauss=   0
     DOS =  2.123243 states/spin/Ry/Unit Cell at Ef=  8.328549 eV
     lambda(    1)=  0.0533   gamma=    2.56 GHz
     lambda(    2)=  0.1117   gamma=    9.67 GHz
     lambda(    3)=  0.5474   gamma=   80.72 GHz
     Gaussian Broadening:   0.020 Ry, ngauss=   0
     DOS =  2.249755 states/spin/Ry/Unit Cell at Ef=  8.324248 eV
     lambda(    1)=  0.0426   gamma=    2.17 GHz
     lambda(    2)=  0.1255   gamma=   11.51 GHz
     lambda(    3)=  0.3880   gamma=   60.64 GHz
     Gaussian Broadening:   0.025 Ry, ngauss=   0
     DOS =  2.329819 states/spin/Ry/Unit Cell at Ef=  8.317791 eV
     lambda(    1)=  0.0364   gamma=    1.92 GHz
     lambda(    2)=  0.1251   gamma=   11.88 GHz
     lambda(    3)=  0.3070   gamma=   49.67 GHz
     Gaussian Broadening:   0.030 Ry, ngauss=   0
     DOS =  2.396041 states/spin/Ry/Unit Cell at Ef=  8.311225 eV
     lambda(    1)=  0.0336   gamma=    1.82 GHz
     lambda(    2)=  0.1245   gamma=   12.15 GHz
     lambda(    3)=  0.2648   gamma=   44.06 GHz
     Gaussian Broadening:   0.035 Ry, ngauss=   0
     DOS =  2.455234 states/spin/Ry/Unit Cell at Ef=  8.305190 eV
     lambda(    1)=  0.0327   gamma=    1.82 GHz
     lambda(    2)=  0.1260   gamma=   12.61 GHz
     lambda(    3)=  0.2424   gamma=   41.34 GHz
     Gaussian Broadening:   0.040 Ry, ngauss=   0
     DOS =  2.507879 states/spin/Ry/Unit Cell at Ef=  8.299884 eV
     lambda(    1)=  0.0326   gamma=    1.85 GHz
     lambda(    2)=  0.1287   gamma=   13.16 GHz
     lambda(    3)=  0.2299   gamma=   40.05 GHz
     Gaussian Broadening:   0.045 Ry, ngauss=   0
     DOS =  2.552970 states/spin/Ry/Unit Cell at Ef=  8.295339 eV
     lambda(    1)=  0.0329   gamma=    1.90 GHz
     lambda(    2)=  0.1315   gamma=   13.68 GHz
     lambda(    3)=  0.2220   gamma=   39.37 GHz
     Gaussian Broadening:   0.050 Ry, ngauss=   0
     DOS =  2.589584 states/spin/Ry/Unit Cell at Ef=  8.291481 eV
     lambda(    1)=  0.0333   gamma=    1.95 GHz
     lambda(    2)=  0.1338   gamma=   14.12 GHz
     lambda(    3)=  0.2165   gamma=   38.94 GHz
 
 
     Number of q in the star =   12
     List of q in the star:
          1   0.500000000   0.000000000   0.500000000
          2  -0.500000000  -0.500000000   0.000000000
          3  -0.500000000   0.500000000   0.000000000
          4  -0.500000000   0.000000000  -0.500000000
          5  -0.500000000   0.000000000   0.500000000
          6   0.500000000   0.000000000  -0.500000000
          7   0.000000000   0.500000000   0.500000000
          8   0.000000000   0.500000000  -0.500000000
          9   0.000000000  -0.500000000  -0.500000000
         10   0.500000000   0.500000000   0.000000000
         11   0.500000000  -0.500000000   0.000000000
         12   0.000000000  -0.500000000   0.500000000
 
     init_run     :      0.01s CPU      0.01s WALL (       1 calls)
     electrons    :      2.50s CPU      2.60s WALL (       1 calls)

     Called by init_run:
     wfcinit      :      0.00s CPU      0.00s WALL (       1 calls)
     potinit      :      0.00s CPU      0.00s WALL (       1 calls)

     Called by electrons:
     c_bands      :      2.50s CPU      2.59s WALL (       1 calls)
     v_of_rho     :      0.00s CPU      0.00s WALL (       2 calls)

     Called by c_bands:
     init_us_2    :      0.02s CPU      0.06s WALL (    3772 calls)
     cegterg      :      2.19s CPU      2.26s WALL (     338 calls)

     Called by sum_band:

     Called by *egterg:
     h_psi        :      2.71s CPU      2.88s WALL (   17022 calls)
     g_psi        :      0.01s CPU      0.02s WALL (    4401 calls)
     cdiaghg      :      0.79s CPU      0.72s WALL (    4729 calls)

     Called by h_psi:
     add_vuspsi   :      0.07s CPU      0.08s WALL (   17022 calls)

     General routines
     calbec       :      0.26s CPU      0.30s WALL (   32585 calls)
     fft          :      0.00s CPU      0.00s WALL (      46 calls)
     ffts         :      0.01s CPU      0.02s WALL (     501 calls)
     fftw         :      2.81s CPU      2.99s WALL (  109480 calls)
     davcio       :      0.06s CPU      0.08s WALL (    7277 calls)
 
     Parallel routines
     fft_scatter  :      0.74s CPU      0.84s WALL (  110027 calls)
 
     PHONON       :    10.12s CPU        10.66s WALL

     INITIALIZATION: 
     phq_setup    :      0.00s CPU      0.00s WALL (       1 calls)
     phq_init     :      0.17s CPU      0.18s WALL (       1 calls)
 
     phq_init     :      0.17s CPU      0.18s WALL (       1 calls)
     init_vloc    :      0.00s CPU      0.00s WALL (       2 calls)
     init_us_1    :      0.00s CPU      0.00s WALL (       2 calls)
 
     DYNAMICAL MATRIX:
     dynmat0      :      0.07s CPU      0.07s WALL (       1 calls)
     phqscf       :      4.69s CPU      5.09s WALL (       1 calls)
     dynmatrix    :      0.00s CPU      0.00s WALL (       1 calls)
 
     phqscf       :      4.69s CPU      5.09s WALL (       1 calls)
     solve_linter :      4.64s CPU      5.04s WALL (       3 calls)
     drhodv       :      0.04s CPU      0.04s WALL (       3 calls)
 
     dynmat0      :      0.07s CPU      0.07s WALL (       1 calls)
     dynmat_us    :      0.07s CPU      0.07s WALL (       1 calls)
     d2ionq       :      0.00s CPU      0.00s WALL (       1 calls)
 
     dynmat_us    :      0.07s CPU      0.07s WALL (       1 calls)
 
     phqscf       :      4.69s CPU      5.09s WALL (       1 calls)
     solve_linter :      4.64s CPU      5.04s WALL (       3 calls)
 
     solve_linter :      4.64s CPU      5.04s WALL (       3 calls)
     dvqpsi_us    :      0.20s CPU      0.22s WALL (     492 calls)
     ortho        :      0.05s CPU      0.05s WALL (    2132 calls)
     cgsolve      :      1.83s CPU      1.97s WALL (    2132 calls)
     incdrhoscf   :      0.26s CPU      0.28s WALL (    2132 calls)
     vpsifft      :      0.17s CPU      0.21s WALL (    1640 calls)
     dv_of_drho   :      0.00s CPU      0.00s WALL (      13 calls)
     mix_pot      :      0.00s CPU      0.00s WALL (      13 calls)
     psymdvscf    :      0.01s CPU      0.01s WALL (      13 calls)
 
     dvqpsi_us    :      0.20s CPU      0.22s WALL (     492 calls)
     dvqpsi_us_on :      0.01s CPU      0.01s WALL (     492 calls)
 
     cgsolve      :      1.83s CPU      1.97s WALL (    2132 calls)
     ch_psi       :      1.66s CPU      1.80s WALL (   11955 calls)
 
     ch_psi       :      1.66s CPU      1.80s WALL (   11955 calls)
     last         :      0.21s CPU      0.23s WALL (   11955 calls)
 
     add_vuspsi   :      0.07s CPU      0.08s WALL (   17022 calls)
 
     incdrhoscf   :      0.26s CPU      0.28s WALL (    2132 calls)
 
 
      General routines
     calbec       :      0.26s CPU      0.30s WALL (   32585 calls)
     fft          :      0.00s CPU      0.00s WALL (      46 calls)
     ffts         :      0.01s CPU      0.02s WALL (     501 calls)
     fftw         :      2.81s CPU      2.99s WALL (  109480 calls)
     davcio       :      0.06s CPU      0.08s WALL (    7277 calls)
     write_rec    :      0.02s CPU      0.03s WALL (      16 calls)
 
 
     PHONON       :    10.12s CPU        10.66s WALL

 
   This run was terminated on:  11:51:29  28Jul2016            

=------------------------------------------------------------------------------=
   JOB DONE.
=------------------------------------------------------------------------------=
