
     Program PHONON v.5.4.0 (svn rev. 12650M) starts on  3Aug2016 at 11:17:23 

     This program is part of the open-source Quantum ESPRESSO suite
     for quantum simulation of materials; please cite
         "P. Giannozzi et al., J. Phys.:Condens. Matter 21 395502 (2009);
          URL http://www.quantum-espresso.org", 
     in publications or presentations arising from this work. More details at
     http://www.quantum-espresso.org/quote
 
           HOST :    x86_64-pc-linux-gnu
           ARCH :    x86_64
             CC :    icc
            CPP :    cpp
            F90 :    ifort
            F77 :    ifort
         DFLAGS :    -D__INTEL -D__FFTW -D__MPI -D__PARA -D__HDF5
      BLAS LIBS :    -lmkl_intel_lp64  -lmkl_sequential -lmkl_core
    LAPACK LIBS :    
       FFT LIBS :    
      MASS LIBS :    

     Parallel version (MPI), running on     2 processors
     R & G space division:  proc/nbgrp/npool/nimage =       2

     Reading data from directory:
     /home/nvarini/espresso_hdf5/espresso/tempdir/al.save

   Info: using nr1, nr2, nr3 values from input

   Info: using nr1, nr2, nr3 values from input

     IMPORTANT: XC functional enforced from input :
     Exchange-correlation      =  SLA  PZ   NOGX NOGC ( 1  1  0  0 0 0)
     Any further DFT definition will be discarded
     Please, verify this is what you really want

 
     Parallelization info
     --------------------
     sticks:   dense  smooth     PW     G-vecs:    dense   smooth      PW
     Min          60      60     21                  434      434      90
     Max          61      61     22                  435      435      91
     Sum         121     121     43                  869      869     181
 


     Dynamical matrices for ( 4, 4, 4)  uniform grid of q-points
     (   8q-points):
       N         xq(1)         xq(2)         xq(3) 
       1   0.000000000   0.000000000   0.000000000
       2  -0.250000000   0.250000000  -0.250000000
       3   0.500000000  -0.500000000   0.500000000
       4   0.000000000   0.500000000   0.000000000
       5   0.750000000  -0.250000000   0.750000000
       6   0.500000000   0.000000000   0.500000000
       7   0.000000000  -1.000000000   0.000000000
       8  -0.500000000  -1.000000000   0.000000000

     Calculation of q =    0.7500000  -0.2500000   0.7500000
 
     Parallelization info
     --------------------
     sticks:   dense  smooth     PW     G-vecs:    dense   smooth      PW
     Min          60      60     30                  434      434     168
     Max          61      61     31                  435      435     171
     Sum         121     121     61                  869      869     339
 


     bravais-lattice index     =            2
     lattice parameter (alat)  =       7.5000  a.u.
     unit-cell volume          =     105.4688 (a.u.)^3
     number of atoms/cell      =            1
     number of atomic types    =            1
     number of electrons       =         3.00
     number of Kohn-Sham states=            6
     kinetic-energy cutoff     =      15.0000  Ry
     charge density cutoff     =      60.0000  Ry
     Exchange-correlation      =  SLA  PZ   NOGX NOGC ( 1  1  0  0 0 0)

     celldm(1)=   7.500000  celldm(2)=   0.000000  celldm(3)=   0.000000
     celldm(4)=   0.000000  celldm(5)=   0.000000  celldm(6)=   0.000000

     crystal axes: (cart. coord. in units of alat)
               a(1) = (  -0.500000   0.000000   0.500000 )  
               a(2) = (   0.000000   0.500000   0.500000 )  
               a(3) = (  -0.500000   0.500000   0.000000 )  

     reciprocal axes: (cart. coord. in units 2 pi/alat)
               b(1) = ( -1.000000 -1.000000  1.000000 )  
               b(2) = (  1.000000  1.000000  1.000000 )  
               b(3) = ( -1.000000  1.000000 -1.000000 )  


     PseudoPot. # 1 for Al read from file:
     /home/nvarini/espresso_hdf5/espresso/pseudo/Al.pz-vbc.UPF
     MD5 check sum: 614279c88ff8d45c90147292d03ed420
     Pseudo is Norm-conserving, Zval =  3.0
     Generated by new atomic code, or converted to UPF format
     Using radial grid of  171 points,  2 beta functions with: 
                l(1) =   0
                l(2) =   1

     atomic species   valence    mass     pseudopotential
        Al             3.00    26.98000     Al( 1.00)

     48 Sym. Ops., with inversion, found



   Cartesian axes

     site n.     atom                  positions (alat units)
         1           Al  tau(   1) = (   0.0000000   0.0000000   0.0000000  )

     number of k points=   576  Methfessel-Paxton smearing, width (Ry)=  0.0500

     Number of k-points >= 100: set verbosity='high' to print them.

     Dense  grid:      869 G-vectors     FFT dimensions: (  15,  15,  15)

     Largest allocated arrays     est. size (Mb)     dimensions
        Kohn-Sham Wavefunctions         0.01 Mb     (      61,    6)
        NL pseudopotentials             0.00 Mb     (      61,    4)
        Each V/rho on FFT grid          0.03 Mb     (    1800)
        Each G-vector array             0.00 Mb     (     435)
        G-vector shells                 0.00 Mb     (      31)
     Largest temporary arrays     est. size (Mb)     dimensions
        Auxiliary wavefunctions         0.02 Mb     (      61,   24)
        Each subspace H/S matrix        0.01 Mb     (      24,   24)
        Each <psi_i|beta_j> matrix      0.00 Mb     (       4,    6)

     The potential is recalculated from file :
     /home/nvarini/espresso_hdf5/espresso/tempdir/_ph0/al.q_5/al.save/charge-density.hdf5

     Starting wfc are    4 atomic +    2 random wfc

     Band Structure Calculation
     Davidson diagonalization with overlap

     ethr =  3.33E-10,  avg # of iterations = 13.5

     total cpu time spent up to now is        4.7 secs

     End of band structure calculation

     Number of k-points >= 100: set verbosity='high' to print the bands.

     the Fermi energy is     8.1818 ev

     Writing output data file al.save

                                                                                

     bravais-lattice index     =            2
     lattice parameter (alat)  =       7.5000  a.u.
     unit-cell volume          =     105.4688 (a.u.)^3
     number of atoms/cell      =            1
     number of atomic types    =            1
     kinetic-energy cut-off    =      15.0000  Ry
     charge density cut-off    =      60.0000  Ry
     convergence threshold     =      1.0E-10
     beta                      =       0.7000
     number of iterations used =            4
     Exchange-correlation      =  SLA  PZ   NOGX NOGC ( 1  1  0  0 0 0)


     celldm(1)=    7.50000  celldm(2)=    0.00000  celldm(3)=    0.00000
     celldm(4)=    0.00000  celldm(5)=    0.00000  celldm(6)=    0.00000

     crystal axes: (cart. coord. in units of alat)
               a(1) = ( -0.5000  0.0000  0.5000 )  
               a(2) = (  0.0000  0.5000  0.5000 )  
               a(3) = ( -0.5000  0.5000  0.0000 )  

     reciprocal axes: (cart. coord. in units 2 pi/alat)
               b(1) = ( -1.0000 -1.0000  1.0000 )  
               b(2) = (  1.0000  1.0000  1.0000 )  
               b(3) = ( -1.0000  1.0000 -1.0000 )  


     Atoms inside the unit cell: 

     Cartesian axes

     site n.  atom      mass           positions (alat units)
        1     Al  26.9800   tau(    1) = (    0.00000    0.00000    0.00000  )

     Computing dynamical matrix for 
                    q = (   0.7500000  -0.2500000   0.7500000 )
 
      2 Sym.Ops. (no q -> -q+G )


     G cutoff =   85.4897  (    435 G-vectors)     FFT grid: ( 15, 15, 15)

     number of k points=   576  Methfessel-Paxton smearing, width (Ry)=  0.0500

     PseudoPot. # 1 for Al read from file:
     /home/nvarini/espresso_hdf5/espresso/pseudo/Al.pz-vbc.UPF
     MD5 check sum: 614279c88ff8d45c90147292d03ed420
     Pseudo is Norm-conserving, Zval =  3.0
     Generated by new atomic code, or converted to UPF format
     Using radial grid of  171 points,  2 beta functions with: 
                l(1) =   0
                l(2) =   1

     Mode symmetry, C_s (m)     point group:


     Atomic displacements:
     There are   3 irreducible representations

     Representation     1      1 modes -A'  To be done

     Representation     2      1 modes -A'  To be done

     Representation     3      1 modes -A''  To be done



     Alpha used in Ewald sum =   0.7000
     PHONON       :     6.16s CPU         6.56s WALL



     Representation #  1 mode #   1

     Self-consistent Calculation

      iter #   1 total cpu time :     7.2 secs   av.it.:   4.1
      thresh= 1.000E-02 alpha_mix =  0.700 |ddv_scf|^2 =  1.596E-04

      iter #   2 total cpu time :     7.7 secs   av.it.:   5.5
      thresh= 1.263E-03 alpha_mix =  0.700 |ddv_scf|^2 =  2.435E-04

      iter #   3 total cpu time :     8.3 secs   av.it.:   4.8
      thresh= 1.561E-03 alpha_mix =  0.700 |ddv_scf|^2 =  1.080E-07

      iter #   4 total cpu time :     8.9 secs   av.it.:   5.9
      thresh= 3.287E-05 alpha_mix =  0.700 |ddv_scf|^2 =  2.484E-09

      iter #   5 total cpu time :     9.6 secs   av.it.:   5.7
      thresh= 4.984E-06 alpha_mix =  0.700 |ddv_scf|^2 =  1.456E-10

      iter #   6 total cpu time :    10.7 secs   av.it.:   5.7
      thresh= 1.207E-06 alpha_mix =  0.700 |ddv_scf|^2 =  1.315E-12

     End of self-consistent calculation

     Convergence has been achieved 


     Representation #  2 mode #   2

     Self-consistent Calculation

      iter #   1 total cpu time :    11.8 secs   av.it.:   4.0
      thresh= 1.000E-02 alpha_mix =  0.700 |ddv_scf|^2 =  3.276E-05

      iter #   2 total cpu time :    12.4 secs   av.it.:   5.8
      thresh= 5.724E-04 alpha_mix =  0.700 |ddv_scf|^2 =  3.713E-05

      iter #   3 total cpu time :    13.0 secs   av.it.:   5.1
      thresh= 6.093E-04 alpha_mix =  0.700 |ddv_scf|^2 =  4.527E-07

      iter #   4 total cpu time :    13.6 secs   av.it.:   5.6
      thresh= 6.728E-05 alpha_mix =  0.700 |ddv_scf|^2 =  1.913E-09

      iter #   5 total cpu time :    14.2 secs   av.it.:   5.7
      thresh= 4.374E-06 alpha_mix =  0.700 |ddv_scf|^2 =  8.213E-11

     End of self-consistent calculation

     Convergence has been achieved 


     Representation #  3 mode #   3

     Self-consistent Calculation

      iter #   1 total cpu time :    15.2 secs   av.it.:   3.4
      thresh= 1.000E-02 alpha_mix =  0.700 |ddv_scf|^2 =  4.857E-07

      iter #   2 total cpu time :    15.8 secs   av.it.:   5.7
      thresh= 6.970E-05 alpha_mix =  0.700 |ddv_scf|^2 =  1.220E-08

      iter #   3 total cpu time :    16.4 secs   av.it.:   4.9
      thresh= 1.105E-05 alpha_mix =  0.700 |ddv_scf|^2 =  9.251E-10

      iter #   4 total cpu time :    16.9 secs   av.it.:   4.9
      thresh= 3.041E-06 alpha_mix =  0.700 |ddv_scf|^2 =  8.215E-14

     End of self-consistent calculation

     Convergence has been achieved 
 
     Number of q in the star =   24
     List of q in the star:
          1   0.750000000  -0.250000000   0.750000000
          2   0.750000000  -0.250000000  -0.750000000
          3   0.750000000   0.250000000  -0.750000000
          4  -0.750000000  -0.750000000   0.250000000
          5  -0.750000000  -0.750000000  -0.250000000
          6  -0.750000000   0.750000000   0.250000000
          7  -0.750000000   0.750000000  -0.250000000
          8  -0.750000000   0.250000000  -0.750000000
          9  -0.750000000   0.250000000   0.750000000
         10  -0.750000000  -0.250000000  -0.750000000
         11   0.750000000   0.250000000   0.750000000
         12  -0.250000000   0.750000000   0.750000000
         13   0.250000000   0.750000000  -0.750000000
         14  -0.250000000  -0.750000000  -0.750000000
         15  -0.250000000   0.750000000  -0.750000000
         16   0.750000000   0.750000000  -0.250000000
         17   0.750000000  -0.750000000   0.250000000
         18   0.250000000  -0.750000000   0.750000000
         19   0.250000000   0.750000000   0.750000000
         20  -0.250000000  -0.750000000   0.750000000
         21  -0.750000000  -0.250000000   0.750000000
         22   0.750000000   0.750000000   0.250000000
         23   0.250000000  -0.750000000  -0.750000000
         24   0.750000000  -0.750000000  -0.250000000

     Diagonalizing the dynamical matrix

     q = (    0.750000000  -0.250000000   0.750000000 ) 

 **************************************************************************
     freq (    1) =       5.408100 [THz] =     180.394806 [cm-1]
     freq (    2) =       6.807150 [THz] =     227.062086 [cm-1]
     freq (    3) =       8.776548 [THz] =     292.754123 [cm-1]
 **************************************************************************

     Mode symmetry, C_s (m)     point group:

     freq (  1 -  1) =        180.4  [cm-1]   --> A''                
     freq (  2 -  2) =        227.1  [cm-1]   --> A'                 
     freq (  3 -  3) =        292.8  [cm-1]   --> A'                 
     electron-phonon interaction  ...

     Gaussian Broadening:   0.005 Ry, ngauss=   0
     DOS =  1.338761 states/spin/Ry/Unit Cell at Ef=  8.321711 eV
     lambda(    1)=  0.0085   gamma=    0.32 GHz
     lambda(    2)=  0.0226   gamma=    1.34 GHz
     lambda(    3)=  0.0268   gamma=    2.64 GHz
     Gaussian Broadening:   0.010 Ry, ngauss=   0
     DOS =  1.881758 states/spin/Ry/Unit Cell at Ef=  8.327076 eV
     lambda(    1)=  0.0616   gamma=    3.24 GHz
     lambda(    2)=  0.1444   gamma=   12.03 GHz
     lambda(    3)=  0.1917   gamma=   26.53 GHz
     Gaussian Broadening:   0.015 Ry, ngauss=   0
     DOS =  2.123243 states/spin/Ry/Unit Cell at Ef=  8.328549 eV
     lambda(    1)=  0.0785   gamma=    4.66 GHz
     lambda(    2)=  0.1408   gamma=   13.23 GHz
     lambda(    3)=  0.2175   gamma=   33.97 GHz
     Gaussian Broadening:   0.020 Ry, ngauss=   0
     DOS =  2.249755 states/spin/Ry/Unit Cell at Ef=  8.324248 eV
     lambda(    1)=  0.0851   gamma=    5.35 GHz
     lambda(    2)=  0.1221   gamma=   12.16 GHz
     lambda(    3)=  0.2187   gamma=   36.20 GHz
     Gaussian Broadening:   0.025 Ry, ngauss=   0
     DOS =  2.329819 states/spin/Ry/Unit Cell at Ef=  8.317791 eV
     lambda(    1)=  0.0860   gamma=    5.59 GHz
     lambda(    2)=  0.1081   gamma=   11.14 GHz
     lambda(    3)=  0.2118   gamma=   36.30 GHz
     Gaussian Broadening:   0.030 Ry, ngauss=   0
     DOS =  2.396041 states/spin/Ry/Unit Cell at Ef=  8.311225 eV
     lambda(    1)=  0.0863   gamma=    5.78 GHz
     lambda(    2)=  0.1001   gamma=   10.61 GHz
     lambda(    3)=  0.2050   gamma=   36.12 GHz
     Gaussian Broadening:   0.035 Ry, ngauss=   0
     DOS =  2.455234 states/spin/Ry/Unit Cell at Ef=  8.305190 eV
     lambda(    1)=  0.0873   gamma=    5.99 GHz
     lambda(    2)=  0.0965   gamma=   10.48 GHz
     lambda(    3)=  0.2006   gamma=   36.24 GHz
     Gaussian Broadening:   0.040 Ry, ngauss=   0
     DOS =  2.507879 states/spin/Ry/Unit Cell at Ef=  8.299884 eV
     lambda(    1)=  0.0887   gamma=    6.22 GHz
     lambda(    2)=  0.0955   gamma=   10.60 GHz
     lambda(    3)=  0.1988   gamma=   36.68 GHz
     Gaussian Broadening:   0.045 Ry, ngauss=   0
     DOS =  2.552970 states/spin/Ry/Unit Cell at Ef=  8.295339 eV
     lambda(    1)=  0.0903   gamma=    6.44 GHz
     lambda(    2)=  0.0961   gamma=   10.85 GHz
     lambda(    3)=  0.1987   gamma=   37.32 GHz
     Gaussian Broadening:   0.050 Ry, ngauss=   0
     DOS =  2.589584 states/spin/Ry/Unit Cell at Ef=  8.291481 eV
     lambda(    1)=  0.0918   gamma=    6.64 GHz
     lambda(    2)=  0.0973   gamma=   11.15 GHz
     lambda(    3)=  0.1996   gamma=   38.02 GHz
 
 
     Number of q in the star =   24
     List of q in the star:
          1   0.750000000  -0.250000000   0.750000000
          2   0.750000000  -0.250000000  -0.750000000
          3   0.750000000   0.250000000  -0.750000000
          4  -0.750000000  -0.750000000   0.250000000
          5  -0.750000000  -0.750000000  -0.250000000
          6  -0.750000000   0.750000000   0.250000000
          7  -0.750000000   0.750000000  -0.250000000
          8  -0.750000000   0.250000000  -0.750000000
          9  -0.750000000   0.250000000   0.750000000
         10  -0.750000000  -0.250000000  -0.750000000
         11   0.750000000   0.250000000   0.750000000
         12  -0.250000000   0.750000000   0.750000000
         13   0.250000000   0.750000000  -0.750000000
         14  -0.250000000  -0.750000000  -0.750000000
         15  -0.250000000   0.750000000  -0.750000000
         16   0.750000000   0.750000000  -0.250000000
         17   0.750000000  -0.750000000   0.250000000
         18   0.250000000  -0.750000000   0.750000000
         19   0.250000000   0.750000000   0.750000000
         20  -0.250000000  -0.750000000   0.750000000
         21  -0.750000000  -0.250000000   0.750000000
         22   0.750000000   0.750000000   0.250000000
         23   0.250000000  -0.750000000  -0.750000000
         24   0.750000000  -0.750000000  -0.250000000
 
     init_run     :      0.01s CPU      0.01s WALL (       1 calls)
     electrons    :      4.41s CPU      4.72s WALL (       1 calls)

     Called by init_run:
     wfcinit      :      0.00s CPU      0.00s WALL (       1 calls)
     potinit      :      0.00s CPU      0.00s WALL (       1 calls)

     Called by electrons:
     c_bands      :      4.40s CPU      4.71s WALL (       1 calls)
     v_of_rho     :      0.00s CPU      0.00s WALL (       2 calls)

     Called by c_bands:
     init_us_2    :      0.04s CPU      0.11s WALL (    7200 calls)
     cegterg      :      3.84s CPU      4.01s WALL (     602 calls)

     Called by sum_band:

     Called by *egterg:
     h_psi        :      5.09s CPU      5.61s WALL (   34115 calls)
     g_psi        :      0.01s CPU      0.03s WALL (    7797 calls)
     cdiaghg      :      1.51s CPU      1.28s WALL (    8373 calls)

     Called by h_psi:
     add_vuspsi   :      0.13s CPU      0.14s WALL (   34115 calls)

     General routines
     calbec       :      0.53s CPU      0.60s WALL (   65591 calls)
     fft          :      0.00s CPU      0.00s WALL (      52 calls)
     ffts         :      0.02s CPU      0.03s WALL (     873 calls)
     fftw         :      5.27s CPU      5.81s WALL (  210762 calls)
     davcio       :      0.11s CPU      0.27s WALL (   14483 calls)
 
     Parallel routines
     fft_scatter  :      1.47s CPU      1.68s WALL (  211687 calls)
 
     PHONON       :    17.26s CPU        19.09s WALL

     INITIALIZATION: 
     phq_setup    :      0.00s CPU      0.00s WALL (       1 calls)
     phq_init     :      0.32s CPU      0.32s WALL (       1 calls)
 
     phq_init     :      0.32s CPU      0.32s WALL (       1 calls)
     init_vloc    :      0.00s CPU      0.00s WALL (       2 calls)
     init_us_1    :      0.00s CPU      0.00s WALL (       2 calls)
 
     DYNAMICAL MATRIX:
     dynmat0      :      0.12s CPU      0.12s WALL (       1 calls)
     phqscf       :      9.47s CPU     10.89s WALL (       1 calls)
     dynmatrix    :      0.00s CPU      0.00s WALL (       1 calls)
 
     phqscf       :      9.47s CPU     10.89s WALL (       1 calls)
     solve_linter :      9.39s CPU     10.81s WALL (       3 calls)
     drhodv       :      0.07s CPU      0.07s WALL (       3 calls)
 
     dynmat0      :      0.12s CPU      0.12s WALL (       1 calls)
     dynmat_us    :      0.12s CPU      0.12s WALL (       1 calls)
     d2ionq       :      0.00s CPU      0.00s WALL (       1 calls)
 
     dynmat_us    :      0.12s CPU      0.12s WALL (       1 calls)
 
     phqscf       :      9.47s CPU     10.89s WALL (       1 calls)
     solve_linter :      9.39s CPU     10.81s WALL (       3 calls)
 
     solve_linter :      9.39s CPU     10.81s WALL (       3 calls)
     dvqpsi_us    :      0.35s CPU      0.39s WALL (     864 calls)
     ortho        :      0.10s CPU      0.10s WALL (    4320 calls)
     cgsolve      :      3.84s CPU      4.15s WALL (    4320 calls)
     incdrhoscf   :      0.53s CPU      0.56s WALL (    4320 calls)
     vpsifft      :      0.33s CPU      0.44s WALL (    3456 calls)
     dv_of_drho   :      0.00s CPU      0.00s WALL (      15 calls)
     mix_pot      :      0.01s CPU      0.01s WALL (      15 calls)
     psymdvscf    :      0.01s CPU      0.01s WALL (      15 calls)
 
     dvqpsi_us    :      0.35s CPU      0.39s WALL (     864 calls)
     dvqpsi_us_on :      0.03s CPU      0.03s WALL (     864 calls)
 
     cgsolve      :      3.84s CPU      4.15s WALL (    4320 calls)
     ch_psi       :      3.46s CPU      3.79s WALL (   25140 calls)
 
     ch_psi       :      3.46s CPU      3.79s WALL (   25140 calls)
     last         :      0.44s CPU      0.49s WALL (   25140 calls)
 
     add_vuspsi   :      0.13s CPU      0.14s WALL (   34115 calls)
 
     incdrhoscf   :      0.53s CPU      0.56s WALL (    4320 calls)
 
 
      General routines
     calbec       :      0.53s CPU      0.60s WALL (   65591 calls)
     fft          :      0.00s CPU      0.00s WALL (      52 calls)
     ffts         :      0.02s CPU      0.03s WALL (     873 calls)
     fftw         :      5.27s CPU      5.81s WALL (  210762 calls)
     davcio       :      0.11s CPU      0.27s WALL (   14483 calls)
     write_rec    :      0.03s CPU      0.55s WALL (      18 calls)
 
 
     PHONON       :    17.26s CPU        19.09s WALL

 
   This run was terminated on:  11:17:42   3Aug2016            

=------------------------------------------------------------------------------=
   JOB DONE.
=------------------------------------------------------------------------------=
