
     Program PHONON v.6.beta (svn rev. 12834M) starts on 25Aug2016 at 11:38:20 

     This program is part of the open-source Quantum ESPRESSO suite
     for quantum simulation of materials; please cite
         "P. Giannozzi et al., J. Phys.:Condens. Matter 21 395502 (2009);
          URL http://www.quantum-espresso.org", 
     in publications or presentations arising from this work. More details at
     http://www.quantum-espresso.org/quote
 
           HOST :    x86_64-pc-linux-gnu
           ARCH :    x86_64
             CC :    icc
            CPP :    cpp
            F90 :    ifort
            F77 :    ifort
         DFLAGS :    -D__INTEL -D__FFTW -D__MPI -D__PARA -D__HDF5
      BLAS LIBS :    -lmkl_intel_lp64  -lmkl_sequential -lmkl_core
    LAPACK LIBS :    
       FFT LIBS :    
      MASS LIBS :    

     Parallel version (MPI), running on     2 processors
     R & G space division:  proc/nbgrp/npool/nimage =       2

     Reading data from directory:
     /home/nvarini/espresso_hdf5/espresso/tempdir/al.save

   Info: using nr1, nr2, nr3 values from input

   Info: using nr1, nr2, nr3 values from input

     IMPORTANT: XC functional enforced from input :
     Exchange-correlation      =  SLA  PZ   NOGX NOGC ( 1  1  0  0 0 0)
     Any further DFT definition will be discarded
     Please, verify this is what you really want

 
     Parallelization info
     --------------------
     sticks:   dense  smooth     PW     G-vecs:    dense   smooth      PW
     Min          60      60     21                  434      434      90
     Max          61      61     22                  435      435      91
     Sum         121     121     43                  869      869     181
 


     Dynamical matrices for ( 4, 4, 4)  uniform grid of q-points
     (   8q-points):
       N         xq(1)         xq(2)         xq(3) 
       1   0.000000000   0.000000000   0.000000000
       2  -0.250000000   0.250000000  -0.250000000
       3   0.500000000  -0.500000000   0.500000000
       4   0.000000000   0.500000000   0.000000000
       5   0.750000000  -0.250000000   0.750000000
       6   0.500000000   0.000000000   0.500000000
       7   0.000000000  -1.000000000   0.000000000
       8  -0.500000000  -1.000000000   0.000000000

     Calculation of q =    0.0000000   0.5000000   0.0000000
 
     Parallelization info
     --------------------
     sticks:   dense  smooth     PW     G-vecs:    dense   smooth      PW
     Min          60      60     27                  434      434     129
     Max          61      61     28                  435      435     130
     Sum         121     121     55                  869      869     259
 


     bravais-lattice index     =            2
     lattice parameter (alat)  =       7.5000  a.u.
     unit-cell volume          =     105.4688 (a.u.)^3
     number of atoms/cell      =            1
     number of atomic types    =            1
     number of electrons       =         3.00
     number of Kohn-Sham states=            6
     kinetic-energy cutoff     =      15.0000  Ry
     charge density cutoff     =      60.0000  Ry
     Exchange-correlation      =  SLA  PZ   NOGX NOGC ( 1  1  0  0 0 0)

     celldm(1)=   7.500000  celldm(2)=   0.000000  celldm(3)=   0.000000
     celldm(4)=   0.000000  celldm(5)=   0.000000  celldm(6)=   0.000000

     crystal axes: (cart. coord. in units of alat)
               a(1) = (  -0.500000   0.000000   0.500000 )  
               a(2) = (   0.000000   0.500000   0.500000 )  
               a(3) = (  -0.500000   0.500000   0.000000 )  

     reciprocal axes: (cart. coord. in units 2 pi/alat)
               b(1) = ( -1.000000 -1.000000  1.000000 )  
               b(2) = (  1.000000  1.000000  1.000000 )  
               b(3) = ( -1.000000  1.000000 -1.000000 )  


     PseudoPot. # 1 for Al read from file:
     /home/nvarini/espresso_hdf5/espresso/pseudo/Al.pz-vbc.UPF
     MD5 check sum: 614279c88ff8d45c90147292d03ed420
     Pseudo is Norm-conserving, Zval =  3.0
     Generated by new atomic code, or converted to UPF format
     Using radial grid of  171 points,  2 beta functions with: 
                l(1) =   0
                l(2) =   1

     atomic species   valence    mass     pseudopotential
        Al             3.00    26.98000     Al( 1.00)

     48 Sym. Ops., with inversion, found



   Cartesian axes

     site n.     atom                  positions (alat units)
         1           Al  tau(   1) = (   0.0000000   0.0000000   0.0000000  )

     number of k points=   200  Methfessel-Paxton smearing, width (Ry)=  0.0500

     Number of k-points >= 100: set verbosity='high' to print them.

     Dense  grid:      869 G-vectors     FFT dimensions: (  15,  15,  15)

     Estimated max dynamical RAM per process >       0.22Mb

     Estimated total allocated dynamical RAM >       0.43Mb

     The potential is recalculated from file :
     /home/nvarini/espresso_hdf5/espresso/tempdir/_ph0/al.q_4/al.save/charge-density.hdf5

     Starting wfc are    4 atomic +    2 random wfc

     Band Structure Calculation
     Davidson diagonalization with overlap

     ethr =  3.33E-10,  avg # of iterations = 13.5

     total cpu time spent up to now is        1.6 secs

     End of band structure calculation

     Number of k-points >= 100: set verbosity='high' to print the bands.

     the Fermi energy is     8.1818 ev

     Writing output data file al.save

                                                                                

     bravais-lattice index     =            2
     lattice parameter (alat)  =       7.5000  a.u.
     unit-cell volume          =     105.4688 (a.u.)^3
     number of atoms/cell      =            1
     number of atomic types    =            1
     kinetic-energy cut-off    =      15.0000  Ry
     charge density cut-off    =      60.0000  Ry
     convergence threshold     =      1.0E-10
     beta                      =       0.7000
     number of iterations used =            4
     Exchange-correlation      =  SLA  PZ   NOGX NOGC ( 1  1  0  0 0 0)


     celldm(1)=    7.50000  celldm(2)=    0.00000  celldm(3)=    0.00000
     celldm(4)=    0.00000  celldm(5)=    0.00000  celldm(6)=    0.00000

     crystal axes: (cart. coord. in units of alat)
               a(1) = ( -0.5000  0.0000  0.5000 )  
               a(2) = (  0.0000  0.5000  0.5000 )  
               a(3) = ( -0.5000  0.5000  0.0000 )  

     reciprocal axes: (cart. coord. in units 2 pi/alat)
               b(1) = ( -1.0000 -1.0000  1.0000 )  
               b(2) = (  1.0000  1.0000  1.0000 )  
               b(3) = ( -1.0000  1.0000 -1.0000 )  


     Atoms inside the unit cell: 

     Cartesian axes

     site n.  atom      mass           positions (alat units)
        1     Al  26.9800   tau(    1) = (    0.00000    0.00000    0.00000  )

     Computing dynamical matrix for 
                    q = (   0.0000000   0.5000000   0.0000000 )
 
      8 Sym.Ops. (no q -> -q+G )


     G cutoff =   85.4897  (    435 G-vectors)     FFT grid: ( 15, 15, 15)

     number of k points=   200  Methfessel-Paxton smearing, width (Ry)=  0.0500

     PseudoPot. # 1 for Al read from file:
     /home/nvarini/espresso_hdf5/espresso/pseudo/Al.pz-vbc.UPF
     MD5 check sum: 614279c88ff8d45c90147292d03ed420
     Pseudo is Norm-conserving, Zval =  3.0
     Generated by new atomic code, or converted to UPF format
     Using radial grid of  171 points,  2 beta functions with: 
                l(1) =   0
                l(2) =   1

     Mode symmetry, C_4v (4mm)  point group:


     Atomic displacements:
     There are   2 irreducible representations

     Representation     1      1 modes -A_1  G_1 D_1  To be done

     Representation     2      2 modes -E    G_5 D_5  To be done



     Alpha used in Ewald sum =   0.7000
     PHONON       :     2.52s CPU         2.66s WALL



     Representation #  1 mode #   1

     Self-consistent Calculation

      iter #   1 total cpu time :     2.9 secs   av.it.:   4.0
      thresh= 1.000E-02 alpha_mix =  0.700 |ddv_scf|^2 =  7.781E-03

      iter #   2 total cpu time :     3.1 secs   av.it.:   4.6
      thresh= 8.821E-03 alpha_mix =  0.700 |ddv_scf|^2 =  1.718E-01

      iter #   3 total cpu time :     3.2 secs   av.it.:   4.4
      thresh= 1.000E-02 alpha_mix =  0.700 |ddv_scf|^2 =  5.022E-08

      iter #   4 total cpu time :     3.4 secs   av.it.:   5.8
      thresh= 2.241E-05 alpha_mix =  0.700 |ddv_scf|^2 =  1.011E-09

      iter #   5 total cpu time :     3.6 secs   av.it.:   5.0
      thresh= 3.179E-06 alpha_mix =  0.700 |ddv_scf|^2 =  7.365E-12

     End of self-consistent calculation

     Convergence has been achieved 


     Representation #  2 modes #   2  3

     Self-consistent Calculation

      iter #   1 total cpu time :     4.1 secs   av.it.:   3.5
      thresh= 1.000E-02 alpha_mix =  0.700 |ddv_scf|^2 =  8.897E-08

      iter #   2 total cpu time :     4.5 secs   av.it.:   6.3
      thresh= 2.983E-05 alpha_mix =  0.700 |ddv_scf|^2 =  3.103E-09

      iter #   3 total cpu time :     4.8 secs   av.it.:   5.6
      thresh= 5.570E-06 alpha_mix =  0.700 |ddv_scf|^2 =  1.754E-10

      iter #   4 total cpu time :     5.2 secs   av.it.:   5.4
      thresh= 1.324E-06 alpha_mix =  0.700 |ddv_scf|^2 =  1.671E-14

     End of self-consistent calculation

     Convergence has been achieved 
 
     Number of q in the star =    6
     List of q in the star:
          1   0.000000000   0.500000000   0.000000000
          2   0.000000000  -0.500000000   0.000000000
          3   0.500000000   0.000000000   0.000000000
          4  -0.500000000   0.000000000   0.000000000
          5   0.000000000   0.000000000   0.500000000
          6   0.000000000   0.000000000  -0.500000000

     Diagonalizing the dynamical matrix

     q = (    0.000000000   0.500000000   0.000000000 ) 

 **************************************************************************
     freq (    1) =       4.263892 [THz] =     142.228130 [cm-1]
     freq (    2) =       4.263892 [THz] =     142.228130 [cm-1]
     freq (    3) =       6.783293 [THz] =     226.266315 [cm-1]
 **************************************************************************

     Mode symmetry, C_4v (4mm)  point group:

     freq (  1 -  2) =        142.2  [cm-1]   --> E    G_5 D_5       
     freq (  3 -  3) =        226.3  [cm-1]   --> A_1  G_1 D_1       
     electron-phonon interaction  ...

     Gaussian Broadening:   0.005 Ry, ngauss=   0
     DOS =  1.338761 states/spin/Ry/Unit Cell at Ef=  8.321711 eV
     lambda(    1)=  0.0004   gamma=    0.01 GHz
     lambda(    2)=  0.0003   gamma=    0.01 GHz
     lambda(    3)=  0.0020   gamma=    0.12 GHz
     Gaussian Broadening:   0.010 Ry, ngauss=   0
     DOS =  1.881758 states/spin/Ry/Unit Cell at Ef=  8.327076 eV
     lambda(    1)=  0.0602   gamma=    1.97 GHz
     lambda(    2)=  0.0536   gamma=    1.75 GHz
     lambda(    3)=  0.0605   gamma=    5.00 GHz
     Gaussian Broadening:   0.015 Ry, ngauss=   0
     DOS =  2.123243 states/spin/Ry/Unit Cell at Ef=  8.328549 eV
     lambda(    1)=  0.1038   gamma=    3.83 GHz
     lambda(    2)=  0.0937   gamma=    3.45 GHz
     lambda(    3)=  0.0893   gamma=    8.33 GHz
     Gaussian Broadening:   0.020 Ry, ngauss=   0
     DOS =  2.249755 states/spin/Ry/Unit Cell at Ef=  8.324248 eV
     lambda(    1)=  0.1121   gamma=    4.38 GHz
     lambda(    2)=  0.1017   gamma=    3.97 GHz
     lambda(    3)=  0.1109   gamma=   10.96 GHz
     Gaussian Broadening:   0.025 Ry, ngauss=   0
     DOS =  2.329819 states/spin/Ry/Unit Cell at Ef=  8.317791 eV
     lambda(    1)=  0.1156   gamma=    4.67 GHz
     lambda(    2)=  0.1056   gamma=    4.27 GHz
     lambda(    3)=  0.1420   gamma=   14.53 GHz
     Gaussian Broadening:   0.030 Ry, ngauss=   0
     DOS =  2.396041 states/spin/Ry/Unit Cell at Ef=  8.311225 eV
     lambda(    1)=  0.1208   gamma=    5.03 GHz
     lambda(    2)=  0.1114   gamma=    4.63 GHz
     lambda(    3)=  0.1724   gamma=   18.15 GHz
     Gaussian Broadening:   0.035 Ry, ngauss=   0
     DOS =  2.455234 states/spin/Ry/Unit Cell at Ef=  8.305190 eV
     lambda(    1)=  0.1276   gamma=    5.44 GHz
     lambda(    2)=  0.1189   gamma=    5.07 GHz
     lambda(    3)=  0.1968   gamma=   21.23 GHz
     Gaussian Broadening:   0.040 Ry, ngauss=   0
     DOS =  2.507879 states/spin/Ry/Unit Cell at Ef=  8.299884 eV
     lambda(    1)=  0.1345   gamma=    5.86 GHz
     lambda(    2)=  0.1267   gamma=    5.52 GHz
     lambda(    3)=  0.2154   gamma=   23.74 GHz
     Gaussian Broadening:   0.045 Ry, ngauss=   0
     DOS =  2.552970 states/spin/Ry/Unit Cell at Ef=  8.295339 eV
     lambda(    1)=  0.1409   gamma=    6.25 GHz
     lambda(    2)=  0.1338   gamma=    5.93 GHz
     lambda(    3)=  0.2297   gamma=   25.77 GHz
     Gaussian Broadening:   0.050 Ry, ngauss=   0
     DOS =  2.589584 states/spin/Ry/Unit Cell at Ef=  8.291481 eV
     lambda(    1)=  0.1462   gamma=    6.58 GHz
     lambda(    2)=  0.1398   gamma=    6.29 GHz
     lambda(    3)=  0.2406   gamma=   27.38 GHz
 
 
     Number of q in the star =    6
     List of q in the star:
          1   0.000000000   0.500000000   0.000000000
          2   0.000000000  -0.500000000   0.000000000
          3   0.500000000   0.000000000   0.000000000
          4  -0.500000000   0.000000000   0.000000000
          5   0.000000000   0.000000000   0.500000000
          6   0.000000000   0.000000000  -0.500000000
 
     init_run     :      0.01s CPU      0.01s WALL (       1 calls)
     electrons    :      1.47s CPU      1.57s WALL (       1 calls)

     Called by init_run:
     wfcinit      :      0.00s CPU      0.00s WALL (       1 calls)
     potinit      :      0.00s CPU      0.00s WALL (       1 calls)

     Called by electrons:
     c_bands      :      1.47s CPU      1.56s WALL (       1 calls)
     v_of_rho     :      0.00s CPU      0.00s WALL (       2 calls)

     Called by c_bands:
     init_us_2    :      0.01s CPU      0.02s WALL (    1700 calls)
     cegterg      :      1.28s CPU      1.36s WALL (     209 calls)

     Called by sum_band:

     Called by *egterg:
     h_psi        :      1.59s CPU      1.73s WALL (   10495 calls)
     g_psi        :      0.00s CPU      0.01s WALL (    2695 calls)
     cdiaghg      :      0.48s CPU      0.44s WALL (    2895 calls)

     Called by h_psi:
     h_psi:pot    :      1.57s CPU      1.71s WALL (   10495 calls)
     h_psi:calbec :      0.11s CPU      0.13s WALL (   10495 calls)
     add_vuspsi   :      0.04s CPU      0.05s WALL (   10495 calls)

     General routines
     calbec       :      0.15s CPU      0.18s WALL (   20086 calls)
     fft          :      0.00s CPU      0.00s WALL (      46 calls)
     ffts         :      0.01s CPU      0.01s WALL (     306 calls)
     fftw         :      1.63s CPU      1.78s WALL (   67044 calls)
     davcio       :      0.04s CPU      0.05s WALL (    4445 calls)
 
     Parallel routines
     fft_scatter  :      0.42s CPU      0.49s WALL (   67396 calls)
 
     PHONON       :     6.68s CPU         7.03s WALL

     INITIALIZATION: 
     phq_setup    :      0.00s CPU      0.00s WALL (       1 calls)
     phq_init     :      0.10s CPU      0.11s WALL (       1 calls)
 
     phq_init     :      0.10s CPU      0.11s WALL (       1 calls)
     init_vloc    :      0.00s CPU      0.00s WALL (       2 calls)
     init_us_1    :      0.00s CPU      0.00s WALL (       2 calls)
 
     DYNAMICAL MATRIX:
     dynmat0      :      0.04s CPU      0.04s WALL (       1 calls)
     phqscf       :      2.52s CPU      2.73s WALL (       1 calls)
     dynmatrix    :      0.00s CPU      0.00s WALL (       1 calls)
 
     phqscf       :      2.52s CPU      2.73s WALL (       1 calls)
     solve_linter :      2.50s CPU      2.70s WALL (       2 calls)
     drhodv       :      0.01s CPU      0.02s WALL (       2 calls)
 
     dynmat0      :      0.04s CPU      0.04s WALL (       1 calls)
     dynmat_us    :      0.04s CPU      0.04s WALL (       1 calls)
     d2ionq       :      0.00s CPU      0.00s WALL (       1 calls)
 
     dynmat_us    :      0.04s CPU      0.04s WALL (       1 calls)
 
     phqscf       :      2.52s CPU      2.73s WALL (       1 calls)
     solve_linter :      2.50s CPU      2.70s WALL (       2 calls)
 
     solve_linter :      2.50s CPU      2.70s WALL (       2 calls)
     dvqpsi_us    :      0.11s CPU      0.13s WALL (     300 calls)
     ortho        :      0.03s CPU      0.03s WALL (    1300 calls)
     cgsolve      :      1.12s CPU      1.19s WALL (    1300 calls)
     incdrhoscf   :      0.16s CPU      0.17s WALL (    1300 calls)
     vpsifft      :      0.10s CPU      0.12s WALL (    1000 calls)
     dv_of_drho   :      0.00s CPU      0.00s WALL (      13 calls)
     mix_pot      :      0.00s CPU      0.00s WALL (       9 calls)
     psymdvscf    :      0.02s CPU      0.02s WALL (       9 calls)
 
     dvqpsi_us    :      0.11s CPU      0.13s WALL (     300 calls)
     dvqpsi_us_on :      0.01s CPU      0.01s WALL (     300 calls)
 
     cgsolve      :      1.12s CPU      1.19s WALL (    1300 calls)
     ch_psi       :      1.00s CPU      1.09s WALL (    7391 calls)
 
     ch_psi       :      1.00s CPU      1.09s WALL (    7391 calls)
     last         :      0.13s CPU      0.14s WALL (    7391 calls)
 
     add_vuspsi   :      0.04s CPU      0.05s WALL (   10495 calls)
 
     incdrhoscf   :      0.16s CPU      0.17s WALL (    1300 calls)
 
 
      General routines
     calbec       :      0.15s CPU      0.18s WALL (   20086 calls)
     fft          :      0.00s CPU      0.00s WALL (      46 calls)
     ffts         :      0.01s CPU      0.01s WALL (     306 calls)
     fftw         :      1.63s CPU      1.78s WALL (   67044 calls)
     davcio       :      0.04s CPU      0.05s WALL (    4445 calls)
     write_rec    :      0.01s CPU      0.02s WALL (      11 calls)
 
 
     PHONON       :     6.68s CPU         7.03s WALL

 
   This run was terminated on:  11:38:27  25Aug2016            

=------------------------------------------------------------------------------=
   JOB DONE.
=------------------------------------------------------------------------------=
