
     Program PHONON v.5.4.0 (svn rev. 12590M) starts on 21Jul2016 at 16:37:44 

     This program is part of the open-source Quantum ESPRESSO suite
     for quantum simulation of materials; please cite
         "P. Giannozzi et al., J. Phys.:Condens. Matter 21 395502 (2009);
          URL http://www.quantum-espresso.org", 
     in publications or presentations arising from this work. More details at
     http://www.quantum-espresso.org/quote
 
           HOST :    x86_64-pc-linux-gnu
           ARCH :    x86_64
             CC :    icc
            CPP :    cpp
            F90 :    gfortran
            F77 :    gfortran
         DFLAGS :    -D__GFORTRAN -D__STD_F95 -D__DFTI -D__MPI -D__PARA -D__HDF5
      BLAS LIBS :    -lmkl_gf_lp64  -lmkl_sequential -lmkl_core
    LAPACK LIBS :    
       FFT LIBS :    
      MASS LIBS :    

     Parallel version (MPI), running on     2 processors
     R & G space division:  proc/nbgrp/npool/nimage =       2

     Reading data from directory:
     /home/nvarini/espresso_hdf5/espresso/tempdir/al.save

   Info: using nr1, nr2, nr3 values from input

   Info: using nr1, nr2, nr3 values from input

     IMPORTANT: XC functional enforced from input :
     Exchange-correlation      =  SLA  PZ   NOGX NOGC ( 1  1  0  0 0 0)
     Any further DFT definition will be discarded
     Please, verify this is what you really want

 
     Parallelization info
     --------------------
     sticks:   dense  smooth     PW     G-vecs:    dense   smooth      PW
     Min          60      60     21                  434      434      90
     Max          61      61     22                  435      435      91
     Sum         121     121     43                  869      869     181
 


     Dynamical matrices for ( 4, 4, 4)  uniform grid of q-points
     (   8q-points):
       N         xq(1)         xq(2)         xq(3) 
       1   0.000000000   0.000000000   0.000000000
       2  -0.250000000   0.250000000  -0.250000000
       3   0.500000000  -0.500000000   0.500000000
       4   0.000000000   0.500000000   0.000000000
       5   0.750000000  -0.250000000   0.750000000
       6   0.500000000   0.000000000   0.500000000
       7   0.000000000  -1.000000000   0.000000000
       8  -0.500000000  -1.000000000   0.000000000

     Calculation of q =   -0.5000000  -1.0000000   0.0000000
 
     Parallelization info
     --------------------
     sticks:   dense  smooth     PW     G-vecs:    dense   smooth      PW
     Min          60      60     30                  434      434     165
     Max          61      61     31                  435      435     166
     Sum         121     121     61                  869      869     331
 


     bravais-lattice index     =            2
     lattice parameter (alat)  =       7.5000  a.u.
     unit-cell volume          =     105.4688 (a.u.)^3
     number of atoms/cell      =            1
     number of atomic types    =            1
     number of electrons       =         3.00
     number of Kohn-Sham states=            6
     kinetic-energy cutoff     =      15.0000  Ry
     charge density cutoff     =      60.0000  Ry
     Exchange-correlation      =  SLA  PZ   NOGX NOGC ( 1  1  0  0 0 0)

     celldm(1)=   7.500000  celldm(2)=   0.000000  celldm(3)=   0.000000
     celldm(4)=   0.000000  celldm(5)=   0.000000  celldm(6)=   0.000000

     crystal axes: (cart. coord. in units of alat)
               a(1) = (  -0.500000   0.000000   0.500000 )  
               a(2) = (   0.000000   0.500000   0.500000 )  
               a(3) = (  -0.500000   0.500000   0.000000 )  

     reciprocal axes: (cart. coord. in units 2 pi/alat)
               b(1) = ( -1.000000 -1.000000  1.000000 )  
               b(2) = (  1.000000  1.000000  1.000000 )  
               b(3) = ( -1.000000  1.000000 -1.000000 )  


     PseudoPot. # 1 for Al read from file:
     /home/nvarini/espresso_hdf5/espresso/pseudo/Al.pz-vbc.UPF
     MD5 check sum: 614279c88ff8d45c90147292d03ed420
     Pseudo is Norm-conserving, Zval =  3.0
     Generated by new atomic code, or converted to UPF format
     Using radial grid of  171 points,  2 beta functions with: 
                l(1) =   0
                l(2) =   1

     atomic species   valence    mass     pseudopotential
        Al             3.00    26.98000     Al( 1.00)

     48 Sym. Ops., with inversion, found



   Cartesian axes

     site n.     atom                  positions (alat units)
         1           Al  tau(   1) = (   0.0000000   0.0000000   0.0000000  )

     number of k points=   174  Methfessel-Paxton smearing, width (Ry)=  0.0500

     Number of k-points >= 100: set verbosity='high' to print them.

     Dense  grid:      869 G-vectors     FFT dimensions: (  15,  15,  15)

     Largest allocated arrays     est. size (Mb)     dimensions
        Kohn-Sham Wavefunctions         0.01 Mb     (      59,    6)
        NL pseudopotentials             0.00 Mb     (      59,    4)
        Each V/rho on FFT grid          0.03 Mb     (    1800)
        Each G-vector array             0.00 Mb     (     435)
        G-vector shells                 0.00 Mb     (      31)
     Largest temporary arrays     est. size (Mb)     dimensions
        Auxiliary wavefunctions         0.02 Mb     (      59,   24)
        Each subspace H/S matrix        0.01 Mb     (      24,   24)
        Each <psi_i|beta_j> matrix      0.00 Mb     (       4,    6)

     The potential is recalculated from file :
     /home/nvarini/espresso_hdf5/espresso/tempdir/_ph0/al.q_8/al.save/charge-density.hdf5

     Starting wfc are    4 atomic +    2 random wfc

     Band Structure Calculation
     Davidson diagonalization with overlap

     ethr =  3.33E-10,  avg # of iterations = 13.2

     total cpu time spent up to now is        1.4 secs

     End of band structure calculation

     Number of k-points >= 100: set verbosity='high' to print the bands.

     the Fermi energy is     8.1818 ev

     Writing output data file al.save

                                                                                

     bravais-lattice index     =            2
     lattice parameter (alat)  =       7.5000  a.u.
     unit-cell volume          =     105.4688 (a.u.)^3
     number of atoms/cell      =            1
     number of atomic types    =            1
     kinetic-energy cut-off    =      15.0000  Ry
     charge density cut-off    =      60.0000  Ry
     convergence threshold     =      1.0E-10
     beta                      =       0.7000
     number of iterations used =            4
     Exchange-correlation      =  SLA  PZ   NOGX NOGC ( 1  1  0  0 0 0)


     celldm(1)=    7.50000  celldm(2)=    0.00000  celldm(3)=    0.00000
     celldm(4)=    0.00000  celldm(5)=    0.00000  celldm(6)=    0.00000

     crystal axes: (cart. coord. in units of alat)
               a(1) = ( -0.5000  0.0000  0.5000 )  
               a(2) = (  0.0000  0.5000  0.5000 )  
               a(3) = ( -0.5000  0.5000  0.0000 )  

     reciprocal axes: (cart. coord. in units 2 pi/alat)
               b(1) = ( -1.0000 -1.0000  1.0000 )  
               b(2) = (  1.0000  1.0000  1.0000 )  
               b(3) = ( -1.0000  1.0000 -1.0000 )  


     Atoms inside the unit cell: 

     Cartesian axes

     site n.  atom      mass           positions (alat units)
        1     Al  26.9800   tau(    1) = (    0.00000    0.00000    0.00000  )

     Computing dynamical matrix for 
                    q = (  -0.5000000  -1.0000000   0.0000000 )
 
      8 Sym.Ops. (no q -> -q+G )


     G cutoff =   85.4897  (    435 G-vectors)     FFT grid: ( 15, 15, 15)

     number of k points=   174  Methfessel-Paxton smearing, width (Ry)=  0.0500

     PseudoPot. # 1 for Al read from file:
     /home/nvarini/espresso_hdf5/espresso/pseudo/Al.pz-vbc.UPF
     MD5 check sum: 614279c88ff8d45c90147292d03ed420
     Pseudo is Norm-conserving, Zval =  3.0
     Generated by new atomic code, or converted to UPF format
     Using radial grid of  171 points,  2 beta functions with: 
                l(1) =   0
                l(2) =   1

     Mode symmetry, D_2d (-42m) point group:


     Atomic displacements:
     There are   2 irreducible representations

     Representation     1      1 modes -B_2  X_3  W_2  To be done

     Representation     2      2 modes -E    X_5  W_3  To be done



     Alpha used in Ewald sum =   0.7000
     PHONON       :     2.31s CPU         2.39s WALL



     Representation #  1 mode #   1

     Self-consistent Calculation

      iter #   1 total cpu time :     2.6 secs   av.it.:   3.8
      thresh= 1.000E-02 alpha_mix =  0.700 |ddv_scf|^2 =  8.155E-06

      iter #   2 total cpu time :     2.8 secs   av.it.:   5.7
      thresh= 2.856E-04 alpha_mix =  0.700 |ddv_scf|^2 =  1.193E-06

      iter #   3 total cpu time :     2.9 secs   av.it.:   5.6
      thresh= 1.092E-04 alpha_mix =  0.700 |ddv_scf|^2 =  3.327E-09

      iter #   4 total cpu time :     3.1 secs   av.it.:   5.5
      thresh= 5.768E-06 alpha_mix =  0.700 |ddv_scf|^2 =  5.695E-12

     End of self-consistent calculation

     Convergence has been achieved 


     Representation #  2 modes #   2  3

     Self-consistent Calculation

      iter #   1 total cpu time :     3.6 secs   av.it.:   3.6
      thresh= 1.000E-02 alpha_mix =  0.700 |ddv_scf|^2 =  4.587E-06

      iter #   2 total cpu time :     3.9 secs   av.it.:   5.9
      thresh= 2.142E-04 alpha_mix =  0.700 |ddv_scf|^2 =  8.898E-07

      iter #   3 total cpu time :     4.2 secs   av.it.:   5.7
      thresh= 9.433E-05 alpha_mix =  0.700 |ddv_scf|^2 =  8.936E-10

      iter #   4 total cpu time :     4.5 secs   av.it.:   5.6
      thresh= 2.989E-06 alpha_mix =  0.700 |ddv_scf|^2 =  7.207E-13

     End of self-consistent calculation

     Convergence has been achieved 
 
     Number of q in the star =    6
     List of q in the star:
          1  -0.500000000  -1.000000000   0.000000000
          2   0.500000000   1.000000000   0.000000000
          3   0.000000000   1.000000000  -0.500000000
          4   0.000000000   1.000000000   0.500000000
          5  -1.000000000  -0.500000000   0.000000000
          6   0.000000000  -0.500000000  -1.000000000

     Diagonalizing the dynamical matrix

     q = (   -0.500000000  -1.000000000   0.000000000 ) 

 **************************************************************************
     freq (    1) =       6.511826 [THz] =     217.211139 [cm-1]
     freq (    2) =       7.825450 [THz] =     261.028913 [cm-1]
     freq (    3) =       7.825450 [THz] =     261.028913 [cm-1]
 **************************************************************************

     Mode symmetry, D_2d (-42m) point group:

     freq (  1 -  1) =        217.2  [cm-1]   --> B_2  X_3  W_2      
     freq (  2 -  3) =        261.0  [cm-1]   --> E    X_5  W_3      
     electron-phonon interaction  ...

     Gaussian Broadening:   0.005 Ry, ngauss=   0
     DOS =  1.338761 states/spin/Ry/Unit Cell at Ef=  8.321711 eV
     lambda(    1)=  0.0002   gamma=    0.01 GHz
     lambda(    2)=  0.0004   gamma=    0.03 GHz
     lambda(    3)=  0.0004   gamma=    0.03 GHz
     Gaussian Broadening:   0.010 Ry, ngauss=   0
     DOS =  1.881758 states/spin/Ry/Unit Cell at Ef=  8.327076 eV
     lambda(    1)=  0.0330   gamma=    2.51 GHz
     lambda(    2)=  0.0619   gamma=    6.82 GHz
     lambda(    3)=  0.0614   gamma=    6.76 GHz
     Gaussian Broadening:   0.015 Ry, ngauss=   0
     DOS =  2.123243 states/spin/Ry/Unit Cell at Ef=  8.328549 eV
     lambda(    1)=  0.0682   gamma=    5.87 GHz
     lambda(    2)=  0.1053   gamma=   13.07 GHz
     lambda(    3)=  0.1046   gamma=   12.98 GHz
     Gaussian Broadening:   0.020 Ry, ngauss=   0
     DOS =  2.249755 states/spin/Ry/Unit Cell at Ef=  8.324248 eV
     lambda(    1)=  0.0736   gamma=    6.71 GHz
     lambda(    2)=  0.1119   gamma=   14.73 GHz
     lambda(    3)=  0.1103   gamma=   14.51 GHz
     Gaussian Broadening:   0.025 Ry, ngauss=   0
     DOS =  2.329819 states/spin/Ry/Unit Cell at Ef=  8.317791 eV
     lambda(    1)=  0.0715   gamma=    6.74 GHz
     lambda(    2)=  0.1138   gamma=   15.50 GHz
     lambda(    3)=  0.1113   gamma=   15.16 GHz
     Gaussian Broadening:   0.030 Ry, ngauss=   0
     DOS =  2.396041 states/spin/Ry/Unit Cell at Ef=  8.311225 eV
     lambda(    1)=  0.0693   gamma=    6.72 GHz
     lambda(    2)=  0.1179   gamma=   16.53 GHz
     lambda(    3)=  0.1152   gamma=   16.14 GHz
     Gaussian Broadening:   0.035 Ry, ngauss=   0
     DOS =  2.455234 states/spin/Ry/Unit Cell at Ef=  8.305190 eV
     lambda(    1)=  0.0685   gamma=    6.81 GHz
     lambda(    2)=  0.1248   gamma=   17.91 GHz
     lambda(    3)=  0.1221   gamma=   17.54 GHz
     Gaussian Broadening:   0.040 Ry, ngauss=   0
     DOS =  2.507879 states/spin/Ry/Unit Cell at Ef=  8.299884 eV
     lambda(    1)=  0.0693   gamma=    7.04 GHz
     lambda(    2)=  0.1334   gamma=   19.56 GHz
     lambda(    3)=  0.1310   gamma=   19.22 GHz
     Gaussian Broadening:   0.045 Ry, ngauss=   0
     DOS =  2.552970 states/spin/Ry/Unit Cell at Ef=  8.295339 eV
     lambda(    1)=  0.0712   gamma=    7.36 GHz
     lambda(    2)=  0.1424   gamma=   21.26 GHz
     lambda(    3)=  0.1404   gamma=   20.96 GHz
     Gaussian Broadening:   0.050 Ry, ngauss=   0
     DOS =  2.589584 states/spin/Ry/Unit Cell at Ef=  8.291481 eV
     lambda(    1)=  0.0736   gamma=    7.71 GHz
     lambda(    2)=  0.1507   gamma=   22.81 GHz
     lambda(    3)=  0.1489   gamma=   22.54 GHz
 
 
     Number of q in the star =    6
     List of q in the star:
          1  -0.500000000  -1.000000000   0.000000000
          2   0.500000000   1.000000000   0.000000000
          3   0.000000000   1.000000000  -0.500000000
          4   0.000000000   1.000000000   0.500000000
          5  -1.000000000  -0.500000000   0.000000000
          6   0.000000000  -0.500000000  -1.000000000
 
     init_run     :      0.01s CPU      0.01s WALL (       1 calls)
     electrons    :      1.31s CPU      1.36s WALL (       1 calls)

     Called by init_run:
     wfcinit      :      0.00s CPU      0.00s WALL (       1 calls)
     potinit      :      0.00s CPU      0.00s WALL (       1 calls)

     Called by electrons:
     c_bands      :      1.31s CPU      1.36s WALL (       1 calls)
     v_of_rho     :      0.00s CPU      0.00s WALL (       2 calls)

     Called by c_bands:
     init_us_2    :      0.01s CPU      0.02s WALL (    1392 calls)
     cegterg      :      1.14s CPU      1.18s WALL (     180 calls)

     Called by sum_band:

     Called by *egterg:
     h_psi        :      1.42s CPU      1.51s WALL (    8827 calls)
     g_psi        :      0.00s CPU      0.01s WALL (    2301 calls)
     cdiaghg      :      0.42s CPU      0.38s WALL (    2475 calls)

     Called by h_psi:
     add_vuspsi   :      0.04s CPU      0.04s WALL (    8827 calls)

     General routines
     calbec       :      0.13s CPU      0.15s WALL (   16913 calls)
     fft          :      0.00s CPU      0.00s WALL (      43 calls)
     ffts         :      0.01s CPU      0.01s WALL (     267 calls)
     fftw         :      1.48s CPU      1.56s WALL (   57416 calls)
     davcio       :      0.03s CPU      0.04s WALL (    3602 calls)
 
     Parallel routines
     fft_scatter  :      0.39s CPU      0.43s WALL (   57726 calls)
 
     PHONON       :     6.09s CPU         6.31s WALL

     INITIALIZATION: 
     phq_setup    :      0.00s CPU      0.00s WALL (       1 calls)
     phq_init     :      0.09s CPU      0.10s WALL (       1 calls)
 
     phq_init     :      0.09s CPU      0.10s WALL (       1 calls)
     init_vloc    :      0.00s CPU      0.00s WALL (       2 calls)
     init_us_1    :      0.00s CPU      0.00s WALL (       2 calls)
 
     DYNAMICAL MATRIX:
     dynmat0      :      0.04s CPU      0.04s WALL (       1 calls)
     phqscf       :      2.15s CPU      2.29s WALL (       1 calls)
     dynmatrix    :      0.00s CPU      0.00s WALL (       1 calls)
 
     phqscf       :      2.15s CPU      2.29s WALL (       1 calls)
     solve_linter :      2.13s CPU      2.27s WALL (       2 calls)
     drhodv       :      0.02s CPU      0.02s WALL (       2 calls)
 
     dynmat0      :      0.04s CPU      0.04s WALL (       1 calls)
     dynmat_us    :      0.04s CPU      0.04s WALL (       1 calls)
     d2ionq       :      0.00s CPU      0.00s WALL (       1 calls)
 
     dynmat_us    :      0.04s CPU      0.04s WALL (       1 calls)
 
     phqscf       :      2.15s CPU      2.29s WALL (       1 calls)
     solve_linter :      2.13s CPU      2.27s WALL (       2 calls)
 
     solve_linter :      2.13s CPU      2.27s WALL (       2 calls)
     dvqpsi_us    :      0.10s CPU      0.11s WALL (     261 calls)
     ortho        :      0.02s CPU      0.02s WALL (    1044 calls)
     cgsolve      :      0.96s CPU      1.02s WALL (    1044 calls)
     incdrhoscf   :      0.13s CPU      0.14s WALL (    1044 calls)
     vpsifft      :      0.09s CPU      0.10s WALL (     783 calls)
     dv_of_drho   :      0.00s CPU      0.00s WALL (      12 calls)
     mix_pot      :      0.00s CPU      0.00s WALL (       8 calls)
     psymdvscf    :      0.02s CPU      0.02s WALL (       8 calls)
 
     dvqpsi_us    :      0.10s CPU      0.11s WALL (     261 calls)
     dvqpsi_us_on :      0.01s CPU      0.01s WALL (     261 calls)
 
     cgsolve      :      0.96s CPU      1.02s WALL (    1044 calls)
     ch_psi       :      0.87s CPU      0.93s WALL (    6172 calls)
 
     ch_psi       :      0.87s CPU      0.93s WALL (    6172 calls)
     last         :      0.10s CPU      0.12s WALL (    6172 calls)
 
     add_vuspsi   :      0.04s CPU      0.04s WALL (    8827 calls)
 
     incdrhoscf   :      0.13s CPU      0.14s WALL (    1044 calls)
 
 
      General routines
     calbec       :      0.13s CPU      0.15s WALL (   16913 calls)
     fft          :      0.00s CPU      0.00s WALL (      43 calls)
     ffts         :      0.01s CPU      0.01s WALL (     267 calls)
     fftw         :      1.48s CPU      1.56s WALL (   57416 calls)
     davcio       :      0.03s CPU      0.04s WALL (    3602 calls)
     write_rec    :      0.02s CPU      0.02s WALL (      10 calls)
 
 
     PHONON       :     6.09s CPU         6.31s WALL

 
   This run was terminated on:  16:37:50  21Jul2016            

=------------------------------------------------------------------------------=
   JOB DONE.
=------------------------------------------------------------------------------=
