
     Program PHONON v.5.4.0 (svn rev. 12590M) starts on 21Jul2016 at 16:36:49 

     This program is part of the open-source Quantum ESPRESSO suite
     for quantum simulation of materials; please cite
         "P. Giannozzi et al., J. Phys.:Condens. Matter 21 395502 (2009);
          URL http://www.quantum-espresso.org", 
     in publications or presentations arising from this work. More details at
     http://www.quantum-espresso.org/quote
 
           HOST :    x86_64-pc-linux-gnu
           ARCH :    x86_64
             CC :    icc
            CPP :    cpp
            F90 :    gfortran
            F77 :    gfortran
         DFLAGS :    -D__GFORTRAN -D__STD_F95 -D__DFTI -D__MPI -D__PARA -D__HDF5
      BLAS LIBS :    -lmkl_gf_lp64  -lmkl_sequential -lmkl_core
    LAPACK LIBS :    
       FFT LIBS :    
      MASS LIBS :    

     Parallel version (MPI), running on     2 processors
     R & G space division:  proc/nbgrp/npool/nimage =       2

     Reading data from directory:
     /home/nvarini/espresso_hdf5/espresso/tempdir/al.save

   Info: using nr1, nr2, nr3 values from input

   Info: using nr1, nr2, nr3 values from input

     IMPORTANT: XC functional enforced from input :
     Exchange-correlation      =  SLA  PZ   NOGX NOGC ( 1  1  0  0 0 0)
     Any further DFT definition will be discarded
     Please, verify this is what you really want

 
     Parallelization info
     --------------------
     sticks:   dense  smooth     PW     G-vecs:    dense   smooth      PW
     Min          60      60     21                  434      434      90
     Max          61      61     22                  435      435      91
     Sum         121     121     43                  869      869     181
 


     Dynamical matrices for ( 4, 4, 4)  uniform grid of q-points
     (   8q-points):
       N         xq(1)         xq(2)         xq(3) 
       1   0.000000000   0.000000000   0.000000000
       2  -0.250000000   0.250000000  -0.250000000
       3   0.500000000  -0.500000000   0.500000000
       4   0.000000000   0.500000000   0.000000000
       5   0.750000000  -0.250000000   0.750000000
       6   0.500000000   0.000000000   0.500000000
       7   0.000000000  -1.000000000   0.000000000
       8  -0.500000000  -1.000000000   0.000000000

     Calculation of q =   -0.2500000   0.2500000  -0.2500000
 
     Parallelization info
     --------------------
     sticks:   dense  smooth     PW     G-vecs:    dense   smooth      PW
     Min          60      60     27                  434      434     129
     Max          61      61     28                  435      435     130
     Sum         121     121     55                  869      869     259
 


     bravais-lattice index     =            2
     lattice parameter (alat)  =       7.5000  a.u.
     unit-cell volume          =     105.4688 (a.u.)^3
     number of atoms/cell      =            1
     number of atomic types    =            1
     number of electrons       =         3.00
     number of Kohn-Sham states=            6
     kinetic-energy cutoff     =      15.0000  Ry
     charge density cutoff     =      60.0000  Ry
     Exchange-correlation      =  SLA  PZ   NOGX NOGC ( 1  1  0  0 0 0)

     celldm(1)=   7.500000  celldm(2)=   0.000000  celldm(3)=   0.000000
     celldm(4)=   0.000000  celldm(5)=   0.000000  celldm(6)=   0.000000

     crystal axes: (cart. coord. in units of alat)
               a(1) = (  -0.500000   0.000000   0.500000 )  
               a(2) = (   0.000000   0.500000   0.500000 )  
               a(3) = (  -0.500000   0.500000   0.000000 )  

     reciprocal axes: (cart. coord. in units 2 pi/alat)
               b(1) = ( -1.000000 -1.000000  1.000000 )  
               b(2) = (  1.000000  1.000000  1.000000 )  
               b(3) = ( -1.000000  1.000000 -1.000000 )  


     PseudoPot. # 1 for Al read from file:
     /home/nvarini/espresso_hdf5/espresso/pseudo/Al.pz-vbc.UPF
     MD5 check sum: 614279c88ff8d45c90147292d03ed420
     Pseudo is Norm-conserving, Zval =  3.0
     Generated by new atomic code, or converted to UPF format
     Using radial grid of  171 points,  2 beta functions with: 
                l(1) =   0
                l(2) =   1

     atomic species   valence    mass     pseudopotential
        Al             3.00    26.98000     Al( 1.00)

     48 Sym. Ops., with inversion, found



   Cartesian axes

     site n.     atom                  positions (alat units)
         1           Al  tau(   1) = (   0.0000000   0.0000000   0.0000000  )

     number of k points=   240  Methfessel-Paxton smearing, width (Ry)=  0.0500

     Number of k-points >= 100: set verbosity='high' to print them.

     Dense  grid:      869 G-vectors     FFT dimensions: (  15,  15,  15)

     Largest allocated arrays     est. size (Mb)     dimensions
        Kohn-Sham Wavefunctions         0.01 Mb     (      66,    6)
        NL pseudopotentials             0.00 Mb     (      66,    4)
        Each V/rho on FFT grid          0.03 Mb     (    1800)
        Each G-vector array             0.00 Mb     (     435)
        G-vector shells                 0.00 Mb     (      31)
     Largest temporary arrays     est. size (Mb)     dimensions
        Auxiliary wavefunctions         0.02 Mb     (      66,   24)
        Each subspace H/S matrix        0.01 Mb     (      24,   24)
        Each <psi_i|beta_j> matrix      0.00 Mb     (       4,    6)

     The potential is recalculated from file :
     /home/nvarini/espresso_hdf5/espresso/tempdir/_ph0/al.q_2/al.save/charge-density.hdf5

     Starting wfc are    4 atomic +    2 random wfc

     Band Structure Calculation
     Davidson diagonalization with overlap

     ethr =  3.33E-10,  avg # of iterations = 14.0

     total cpu time spent up to now is        1.9 secs

     End of band structure calculation

     Number of k-points >= 100: set verbosity='high' to print the bands.

     the Fermi energy is     8.1818 ev

     Writing output data file al.save

                                                                                

     bravais-lattice index     =            2
     lattice parameter (alat)  =       7.5000  a.u.
     unit-cell volume          =     105.4688 (a.u.)^3
     number of atoms/cell      =            1
     number of atomic types    =            1
     kinetic-energy cut-off    =      15.0000  Ry
     charge density cut-off    =      60.0000  Ry
     convergence threshold     =      1.0E-10
     beta                      =       0.7000
     number of iterations used =            4
     Exchange-correlation      =  SLA  PZ   NOGX NOGC ( 1  1  0  0 0 0)


     celldm(1)=    7.50000  celldm(2)=    0.00000  celldm(3)=    0.00000
     celldm(4)=    0.00000  celldm(5)=    0.00000  celldm(6)=    0.00000

     crystal axes: (cart. coord. in units of alat)
               a(1) = ( -0.5000  0.0000  0.5000 )  
               a(2) = (  0.0000  0.5000  0.5000 )  
               a(3) = ( -0.5000  0.5000  0.0000 )  

     reciprocal axes: (cart. coord. in units 2 pi/alat)
               b(1) = ( -1.0000 -1.0000  1.0000 )  
               b(2) = (  1.0000  1.0000  1.0000 )  
               b(3) = ( -1.0000  1.0000 -1.0000 )  


     Atoms inside the unit cell: 

     Cartesian axes

     site n.  atom      mass           positions (alat units)
        1     Al  26.9800   tau(    1) = (    0.00000    0.00000    0.00000  )

     Computing dynamical matrix for 
                    q = (  -0.2500000   0.2500000  -0.2500000 )
 
      6 Sym.Ops. (no q -> -q+G )


     G cutoff =   85.4897  (    435 G-vectors)     FFT grid: ( 15, 15, 15)

     number of k points=   240  Methfessel-Paxton smearing, width (Ry)=  0.0500

     PseudoPot. # 1 for Al read from file:
     /home/nvarini/espresso_hdf5/espresso/pseudo/Al.pz-vbc.UPF
     MD5 check sum: 614279c88ff8d45c90147292d03ed420
     Pseudo is Norm-conserving, Zval =  3.0
     Generated by new atomic code, or converted to UPF format
     Using radial grid of  171 points,  2 beta functions with: 
                l(1) =   0
                l(2) =   1

     Mode symmetry, C_3v (3m)   point group:


     Atomic displacements:
     There are   2 irreducible representations

     Representation     1      1 modes -A_1  L_1  To be done

     Representation     2      2 modes -E    L_3  To be done



     Alpha used in Ewald sum =   0.7000
     PHONON       :     2.94s CPU         3.10s WALL



     Representation #  1 mode #   1

     Self-consistent Calculation

      iter #   1 total cpu time :     3.3 secs   av.it.:   4.3
      thresh= 1.000E-02 alpha_mix =  0.700 |ddv_scf|^2 =  1.964E-02

      iter #   2 total cpu time :     3.6 secs   av.it.:   5.0
      thresh= 1.000E-02 alpha_mix =  0.700 |ddv_scf|^2 =  7.969E-01

      iter #   3 total cpu time :     3.8 secs   av.it.:   4.8
      thresh= 1.000E-02 alpha_mix =  0.700 |ddv_scf|^2 =  3.904E-07

      iter #   4 total cpu time :     4.0 secs   av.it.:   5.7
      thresh= 6.248E-05 alpha_mix =  0.700 |ddv_scf|^2 =  1.729E-09

      iter #   5 total cpu time :     4.3 secs   av.it.:   5.7
      thresh= 4.158E-06 alpha_mix =  0.700 |ddv_scf|^2 =  2.453E-10

      iter #   6 total cpu time :     4.5 secs   av.it.:   5.5
      thresh= 1.566E-06 alpha_mix =  0.700 |ddv_scf|^2 =  5.786E-09

      iter #   7 total cpu time :     4.7 secs   av.it.:   3.5
      thresh= 7.607E-06 alpha_mix =  0.700 |ddv_scf|^2 =  1.168E-12

     End of self-consistent calculation

     Convergence has been achieved 


     Representation #  2 modes #   2  3

     Self-consistent Calculation

      iter #   1 total cpu time :     5.3 secs   av.it.:   3.5
      thresh= 1.000E-02 alpha_mix =  0.700 |ddv_scf|^2 =  3.271E-08

      iter #   2 total cpu time :     5.7 secs   av.it.:   6.3
      thresh= 1.809E-05 alpha_mix =  0.700 |ddv_scf|^2 =  3.052E-09

      iter #   3 total cpu time :     6.1 secs   av.it.:   5.8
      thresh= 5.524E-06 alpha_mix =  0.700 |ddv_scf|^2 =  9.967E-12

     End of self-consistent calculation

     Convergence has been achieved 
 
     Number of q in the star =    8
     List of q in the star:
          1  -0.250000000   0.250000000  -0.250000000
          2   0.250000000  -0.250000000  -0.250000000
          3   0.250000000  -0.250000000   0.250000000
          4   0.250000000   0.250000000   0.250000000
          5  -0.250000000  -0.250000000  -0.250000000
          6  -0.250000000  -0.250000000   0.250000000
          7  -0.250000000   0.250000000   0.250000000
          8   0.250000000   0.250000000  -0.250000000

     Diagonalizing the dynamical matrix

     q = (   -0.250000000   0.250000000  -0.250000000 ) 

 **************************************************************************
     freq (    1) =       3.546255 [THz] =     118.290348 [cm-1]
     freq (    2) =       3.546255 [THz] =     118.290348 [cm-1]
     freq (    3) =       6.379391 [THz] =     212.793574 [cm-1]
 **************************************************************************

     Mode symmetry, C_3v (3m)   point group:

     freq (  1 -  2) =        118.3  [cm-1]   --> E    L_3           
     freq (  3 -  3) =        212.8  [cm-1]   --> A_1  L_1           
     electron-phonon interaction  ...

     Gaussian Broadening:   0.005 Ry, ngauss=   0
     DOS =  1.338761 states/spin/Ry/Unit Cell at Ef=  8.321711 eV
     lambda(    1)=  0.0022   gamma=    0.04 GHz
     lambda(    2)=  0.0022   gamma=    0.04 GHz
     lambda(    3)=  0.0280   gamma=    1.46 GHz
     Gaussian Broadening:   0.010 Ry, ngauss=   0
     DOS =  1.881758 states/spin/Ry/Unit Cell at Ef=  8.327076 eV
     lambda(    1)=  0.0202   gamma=    0.46 GHz
     lambda(    2)=  0.0202   gamma=    0.46 GHz
     lambda(    3)=  0.2277   gamma=   16.65 GHz
     Gaussian Broadening:   0.015 Ry, ngauss=   0
     DOS =  2.123243 states/spin/Ry/Unit Cell at Ef=  8.328549 eV
     lambda(    1)=  0.0246   gamma=    0.63 GHz
     lambda(    2)=  0.0247   gamma=    0.63 GHz
     lambda(    3)=  0.2237   gamma=   18.46 GHz
     Gaussian Broadening:   0.020 Ry, ngauss=   0
     DOS =  2.249755 states/spin/Ry/Unit Cell at Ef=  8.324248 eV
     lambda(    1)=  0.0279   gamma=    0.75 GHz
     lambda(    2)=  0.0278   gamma=    0.75 GHz
     lambda(    3)=  0.1990   gamma=   17.40 GHz
     Gaussian Broadening:   0.025 Ry, ngauss=   0
     DOS =  2.329819 states/spin/Ry/Unit Cell at Ef=  8.317791 eV
     lambda(    1)=  0.0319   gamma=    0.89 GHz
     lambda(    2)=  0.0318   gamma=    0.89 GHz
     lambda(    3)=  0.1852   gamma=   16.77 GHz
     Gaussian Broadening:   0.030 Ry, ngauss=   0
     DOS =  2.396041 states/spin/Ry/Unit Cell at Ef=  8.311225 eV
     lambda(    1)=  0.0363   gamma=    1.05 GHz
     lambda(    2)=  0.0363   gamma=    1.04 GHz
     lambda(    3)=  0.1821   gamma=   16.95 GHz
     Gaussian Broadening:   0.035 Ry, ngauss=   0
     DOS =  2.455234 states/spin/Ry/Unit Cell at Ef=  8.305190 eV
     lambda(    1)=  0.0408   gamma=    1.20 GHz
     lambda(    2)=  0.0408   gamma=    1.20 GHz
     lambda(    3)=  0.1860   gamma=   17.75 GHz
     Gaussian Broadening:   0.040 Ry, ngauss=   0
     DOS =  2.507879 states/spin/Ry/Unit Cell at Ef=  8.299884 eV
     lambda(    1)=  0.0451   gamma=    1.36 GHz
     lambda(    2)=  0.0450   gamma=    1.36 GHz
     lambda(    3)=  0.1938   gamma=   18.89 GHz
     Gaussian Broadening:   0.045 Ry, ngauss=   0
     DOS =  2.552970 states/spin/Ry/Unit Cell at Ef=  8.295339 eV
     lambda(    1)=  0.0489   gamma=    1.50 GHz
     lambda(    2)=  0.0488   gamma=    1.50 GHz
     lambda(    3)=  0.2035   gamma=   20.19 GHz
     Gaussian Broadening:   0.050 Ry, ngauss=   0
     DOS =  2.589584 states/spin/Ry/Unit Cell at Ef=  8.291481 eV
     lambda(    1)=  0.0523   gamma=    1.63 GHz
     lambda(    2)=  0.0522   gamma=    1.62 GHz
     lambda(    3)=  0.2137   gamma=   21.50 GHz
 
 
     Number of q in the star =    8
     List of q in the star:
          1  -0.250000000   0.250000000  -0.250000000
          2   0.250000000  -0.250000000  -0.250000000
          3   0.250000000  -0.250000000   0.250000000
          4   0.250000000   0.250000000   0.250000000
          5  -0.250000000  -0.250000000  -0.250000000
          6  -0.250000000  -0.250000000   0.250000000
          7  -0.250000000   0.250000000   0.250000000
          8   0.250000000   0.250000000  -0.250000000
 
     init_run     :      0.01s CPU      0.01s WALL (       1 calls)
     electrons    :      1.84s CPU      1.94s WALL (       1 calls)

     Called by init_run:
     wfcinit      :      0.00s CPU      0.00s WALL (       1 calls)
     potinit      :      0.00s CPU      0.00s WALL (       1 calls)

     Called by electrons:
     c_bands      :      1.83s CPU      1.93s WALL (       1 calls)
     v_of_rho     :      0.00s CPU      0.00s WALL (       2 calls)

     Called by c_bands:
     init_us_2    :      0.01s CPU      0.03s WALL (    2160 calls)
     cegterg      :      1.60s CPU      1.69s WALL (     255 calls)

     Called by sum_band:

     Called by *egterg:
     h_psi        :      1.91s CPU      2.09s WALL (   12662 calls)
     g_psi        :      0.00s CPU      0.01s WALL (    3352 calls)
     cdiaghg      :      0.63s CPU      0.54s WALL (    3592 calls)

     Called by h_psi:
     add_vuspsi   :      0.05s CPU      0.06s WALL (   12662 calls)

     General routines
     calbec       :      0.19s CPU      0.21s WALL (   24117 calls)
     fft          :      0.00s CPU      0.00s WALL (      46 calls)
     ffts         :      0.01s CPU      0.01s WALL (     366 calls)
     fftw         :      1.96s CPU      2.14s WALL (   80332 calls)
     davcio       :      0.04s CPU      0.06s WALL (    5341 calls)
 
     Parallel routines
     fft_scatter  :      0.50s CPU      0.58s WALL (   80744 calls)
 
     PHONON       :     7.66s CPU         8.04s WALL

     INITIALIZATION: 
     phq_setup    :      0.00s CPU      0.00s WALL (       1 calls)
     phq_init     :      0.12s CPU      0.13s WALL (       1 calls)
 
     phq_init     :      0.12s CPU      0.13s WALL (       1 calls)
     init_vloc    :      0.00s CPU      0.00s WALL (       2 calls)
     init_us_1    :      0.00s CPU      0.00s WALL (       2 calls)
 
     DYNAMICAL MATRIX:
     dynmat0      :      0.05s CPU      0.05s WALL (       1 calls)
     phqscf       :      3.10s CPU      3.32s WALL (       1 calls)
     dynmatrix    :      0.00s CPU      0.00s WALL (       1 calls)
 
     phqscf       :      3.10s CPU      3.32s WALL (       1 calls)
     solve_linter :      3.07s CPU      3.29s WALL (       2 calls)
     drhodv       :      0.03s CPU      0.03s WALL (       2 calls)
 
     dynmat0      :      0.05s CPU      0.05s WALL (       1 calls)
     dynmat_us    :      0.05s CPU      0.05s WALL (       1 calls)
     d2ionq       :      0.00s CPU      0.00s WALL (       1 calls)
 
     dynmat_us    :      0.05s CPU      0.05s WALL (       1 calls)
 
     phqscf       :      3.10s CPU      3.32s WALL (       1 calls)
     solve_linter :      3.07s CPU      3.29s WALL (       2 calls)
 
     solve_linter :      3.07s CPU      3.29s WALL (       2 calls)
     dvqpsi_us    :      0.15s CPU      0.16s WALL (     360 calls)
     ortho        :      0.04s CPU      0.04s WALL (    1560 calls)
     cgsolve      :      1.33s CPU      1.42s WALL (    1560 calls)
     incdrhoscf   :      0.18s CPU      0.19s WALL (    1560 calls)
     vpsifft      :      0.11s CPU      0.14s WALL (    1200 calls)
     dv_of_drho   :      0.00s CPU      0.00s WALL (      13 calls)
     mix_pot      :      0.00s CPU      0.00s WALL (      10 calls)
     psymdvscf    :      0.02s CPU      0.02s WALL (      10 calls)
 
     dvqpsi_us    :      0.15s CPU      0.16s WALL (     360 calls)
     dvqpsi_us_on :      0.01s CPU      0.01s WALL (     360 calls)
 
     cgsolve      :      1.33s CPU      1.42s WALL (    1560 calls)
     ch_psi       :      1.19s CPU      1.29s WALL (    8815 calls)
 
     ch_psi       :      1.19s CPU      1.29s WALL (    8815 calls)
     last         :      0.16s CPU      0.16s WALL (    8815 calls)
 
     add_vuspsi   :      0.05s CPU      0.06s WALL (   12662 calls)
 
     incdrhoscf   :      0.18s CPU      0.19s WALL (    1560 calls)
 
 
      General routines
     calbec       :      0.19s CPU      0.21s WALL (   24117 calls)
     fft          :      0.00s CPU      0.00s WALL (      46 calls)
     ffts         :      0.01s CPU      0.01s WALL (     366 calls)
     fftw         :      1.96s CPU      2.14s WALL (   80332 calls)
     davcio       :      0.04s CPU      0.06s WALL (    5341 calls)
     write_rec    :      0.01s CPU      0.02s WALL (      12 calls)
 
 
     PHONON       :     7.66s CPU         8.04s WALL

 
   This run was terminated on:  16:36:57  21Jul2016            

=------------------------------------------------------------------------------=
   JOB DONE.
=------------------------------------------------------------------------------=
