
     Program PHONON v.5.4.0 (svn rev. 12650M) starts on  3Aug2016 at 11:17:53 

     This program is part of the open-source Quantum ESPRESSO suite
     for quantum simulation of materials; please cite
         "P. Giannozzi et al., J. Phys.:Condens. Matter 21 395502 (2009);
          URL http://www.quantum-espresso.org", 
     in publications or presentations arising from this work. More details at
     http://www.quantum-espresso.org/quote
 
           HOST :    x86_64-pc-linux-gnu
           ARCH :    x86_64
             CC :    icc
            CPP :    cpp
            F90 :    ifort
            F77 :    ifort
         DFLAGS :    -D__INTEL -D__FFTW -D__MPI -D__PARA -D__HDF5
      BLAS LIBS :    -lmkl_intel_lp64  -lmkl_sequential -lmkl_core
    LAPACK LIBS :    
       FFT LIBS :    
      MASS LIBS :    

     Parallel version (MPI), running on     2 processors
     R & G space division:  proc/nbgrp/npool/nimage =       2

     Reading data from directory:
     /home/nvarini/espresso_hdf5/espresso/tempdir/al.save

   Info: using nr1, nr2, nr3 values from input

   Info: using nr1, nr2, nr3 values from input

     IMPORTANT: XC functional enforced from input :
     Exchange-correlation      =  SLA  PZ   NOGX NOGC ( 1  1  0  0 0 0)
     Any further DFT definition will be discarded
     Please, verify this is what you really want

 
     Parallelization info
     --------------------
     sticks:   dense  smooth     PW     G-vecs:    dense   smooth      PW
     Min          60      60     21                  434      434      90
     Max          61      61     22                  435      435      91
     Sum         121     121     43                  869      869     181
 


     Dynamical matrices for ( 4, 4, 4)  uniform grid of q-points
     (   8q-points):
       N         xq(1)         xq(2)         xq(3) 
       1   0.000000000   0.000000000   0.000000000
       2  -0.250000000   0.250000000  -0.250000000
       3   0.500000000  -0.500000000   0.500000000
       4   0.000000000   0.500000000   0.000000000
       5   0.750000000  -0.250000000   0.750000000
       6   0.500000000   0.000000000   0.500000000
       7   0.000000000  -1.000000000   0.000000000
       8  -0.500000000  -1.000000000   0.000000000

     Calculation of q =    0.0000000  -1.0000000   0.0000000
 
     Parallelization info
     --------------------
     sticks:   dense  smooth     PW     G-vecs:    dense   smooth      PW
     Min          60      60     30                  434      434     165
     Max          61      61     31                  435      435     166
     Sum         121     121     61                  869      869     331
 


     bravais-lattice index     =            2
     lattice parameter (alat)  =       7.5000  a.u.
     unit-cell volume          =     105.4688 (a.u.)^3
     number of atoms/cell      =            1
     number of atomic types    =            1
     number of electrons       =         3.00
     number of Kohn-Sham states=            6
     kinetic-energy cutoff     =      15.0000  Ry
     charge density cutoff     =      60.0000  Ry
     Exchange-correlation      =  SLA  PZ   NOGX NOGC ( 1  1  0  0 0 0)

     celldm(1)=   7.500000  celldm(2)=   0.000000  celldm(3)=   0.000000
     celldm(4)=   0.000000  celldm(5)=   0.000000  celldm(6)=   0.000000

     crystal axes: (cart. coord. in units of alat)
               a(1) = (  -0.500000   0.000000   0.500000 )  
               a(2) = (   0.000000   0.500000   0.500000 )  
               a(3) = (  -0.500000   0.500000   0.000000 )  

     reciprocal axes: (cart. coord. in units 2 pi/alat)
               b(1) = ( -1.000000 -1.000000  1.000000 )  
               b(2) = (  1.000000  1.000000  1.000000 )  
               b(3) = ( -1.000000  1.000000 -1.000000 )  


     PseudoPot. # 1 for Al read from file:
     /home/nvarini/espresso_hdf5/espresso/pseudo/Al.pz-vbc.UPF
     MD5 check sum: 614279c88ff8d45c90147292d03ed420
     Pseudo is Norm-conserving, Zval =  3.0
     Generated by new atomic code, or converted to UPF format
     Using radial grid of  171 points,  2 beta functions with: 
                l(1) =   0
                l(2) =   1

     atomic species   valence    mass     pseudopotential
        Al             3.00    26.98000     Al( 1.00)

     48 Sym. Ops., with inversion, found



   Cartesian axes

     site n.     atom                  positions (alat units)
         1           Al  tau(   1) = (   0.0000000   0.0000000   0.0000000  )

     number of k points=   118  Methfessel-Paxton smearing, width (Ry)=  0.0500

     Number of k-points >= 100: set verbosity='high' to print them.

     Dense  grid:      869 G-vectors     FFT dimensions: (  15,  15,  15)

     Largest allocated arrays     est. size (Mb)     dimensions
        Kohn-Sham Wavefunctions         0.01 Mb     (      60,    6)
        NL pseudopotentials             0.00 Mb     (      60,    4)
        Each V/rho on FFT grid          0.03 Mb     (    1800)
        Each G-vector array             0.00 Mb     (     435)
        G-vector shells                 0.00 Mb     (      31)
     Largest temporary arrays     est. size (Mb)     dimensions
        Auxiliary wavefunctions         0.02 Mb     (      60,   24)
        Each subspace H/S matrix        0.01 Mb     (      24,   24)
        Each <psi_i|beta_j> matrix      0.00 Mb     (       4,    6)

     The potential is recalculated from file :
     /home/nvarini/espresso_hdf5/espresso/tempdir/_ph0/al.q_7/al.save/charge-density.hdf5

     Starting wfc are    4 atomic +    2 random wfc

     Band Structure Calculation
     Davidson diagonalization with overlap

     ethr =  3.33E-10,  avg # of iterations = 13.4

     total cpu time spent up to now is        1.0 secs

     End of band structure calculation

     Number of k-points >= 100: set verbosity='high' to print the bands.

     the Fermi energy is     8.1818 ev

     Writing output data file al.save

                                                                                

     bravais-lattice index     =            2
     lattice parameter (alat)  =       7.5000  a.u.
     unit-cell volume          =     105.4688 (a.u.)^3
     number of atoms/cell      =            1
     number of atomic types    =            1
     kinetic-energy cut-off    =      15.0000  Ry
     charge density cut-off    =      60.0000  Ry
     convergence threshold     =      1.0E-10
     beta                      =       0.7000
     number of iterations used =            4
     Exchange-correlation      =  SLA  PZ   NOGX NOGC ( 1  1  0  0 0 0)


     celldm(1)=    7.50000  celldm(2)=    0.00000  celldm(3)=    0.00000
     celldm(4)=    0.00000  celldm(5)=    0.00000  celldm(6)=    0.00000

     crystal axes: (cart. coord. in units of alat)
               a(1) = ( -0.5000  0.0000  0.5000 )  
               a(2) = (  0.0000  0.5000  0.5000 )  
               a(3) = ( -0.5000  0.5000  0.0000 )  

     reciprocal axes: (cart. coord. in units 2 pi/alat)
               b(1) = ( -1.0000 -1.0000  1.0000 )  
               b(2) = (  1.0000  1.0000  1.0000 )  
               b(3) = ( -1.0000  1.0000 -1.0000 )  


     Atoms inside the unit cell: 

     Cartesian axes

     site n.  atom      mass           positions (alat units)
        1     Al  26.9800   tau(    1) = (    0.00000    0.00000    0.00000  )

     Computing dynamical matrix for 
                    q = (   0.0000000  -1.0000000   0.0000000 )
 
     17 Sym.Ops. (with q -> -q+G )


     G cutoff =   85.4897  (    435 G-vectors)     FFT grid: ( 15, 15, 15)

     number of k points=   118  Methfessel-Paxton smearing, width (Ry)=  0.0500

     PseudoPot. # 1 for Al read from file:
     /home/nvarini/espresso_hdf5/espresso/pseudo/Al.pz-vbc.UPF
     MD5 check sum: 614279c88ff8d45c90147292d03ed420
     Pseudo is Norm-conserving, Zval =  3.0
     Generated by new atomic code, or converted to UPF format
     Using radial grid of  171 points,  2 beta functions with: 
                l(1) =   0
                l(2) =   1

     Mode symmetry, D_4h(4/mmm) point group:


     Atomic displacements:
     There are   2 irreducible representations

     Representation     1      1 modes -A_2u X_4' M_4'  To be done

     Representation     2      2 modes -E_u  X_5' M_5'  To be done



     Alpha used in Ewald sum =   0.7000
     PHONON       :     1.80s CPU         1.87s WALL



     Representation #  1 mode #   1

     Self-consistent Calculation

      iter #   1 total cpu time :     2.0 secs   av.it.:   3.8
      thresh= 1.000E-02 alpha_mix =  0.700 |ddv_scf|^2 =  6.006E-05

      iter #   2 total cpu time :     2.1 secs   av.it.:   5.2
      thresh= 7.750E-04 alpha_mix =  0.700 |ddv_scf|^2 =  2.270E-05

      iter #   3 total cpu time :     2.2 secs   av.it.:   4.9
      thresh= 4.764E-04 alpha_mix =  0.700 |ddv_scf|^2 =  4.464E-09

      iter #   4 total cpu time :     2.4 secs   av.it.:   5.3
      thresh= 6.681E-06 alpha_mix =  0.700 |ddv_scf|^2 =  2.164E-11

     End of self-consistent calculation

     Convergence has been achieved 


     Representation #  2 modes #   2  3

     Self-consistent Calculation

      iter #   1 total cpu time :     2.7 secs   av.it.:   3.6
      thresh= 1.000E-02 alpha_mix =  0.700 |ddv_scf|^2 =  2.795E-07

      iter #   2 total cpu time :     2.9 secs   av.it.:   6.1
      thresh= 5.287E-05 alpha_mix =  0.700 |ddv_scf|^2 =  3.958E-09

      iter #   3 total cpu time :     3.1 secs   av.it.:   5.7
      thresh= 6.291E-06 alpha_mix =  0.700 |ddv_scf|^2 =  3.702E-10

      iter #   4 total cpu time :     3.3 secs   av.it.:   5.5
      thresh= 1.924E-06 alpha_mix =  0.700 |ddv_scf|^2 =  1.506E-14

     End of self-consistent calculation

     Convergence has been achieved 
 
     Number of q in the star =    3
     List of q in the star:
          1   0.000000000  -1.000000000   0.000000000
          2  -1.000000000   0.000000000   0.000000000
          3   0.000000000   0.000000000  -1.000000000

     Diagonalizing the dynamical matrix

     q = (    0.000000000  -1.000000000   0.000000000 ) 

 **************************************************************************
     freq (    1) =       6.051670 [THz] =     201.861976 [cm-1]
     freq (    2) =       6.051670 [THz] =     201.861976 [cm-1]
     freq (    3) =       9.996857 [THz] =     333.459261 [cm-1]
 **************************************************************************

     Mode symmetry, D_4h(4/mmm) point group:

     freq (  1 -  2) =        201.9  [cm-1]   --> E_u  X_5' M_5'     
     freq (  3 -  3) =        333.5  [cm-1]   --> A_2u X_4' M_4'     
     electron-phonon interaction  ...

     Gaussian Broadening:   0.005 Ry, ngauss=   0
     DOS =  1.338761 states/spin/Ry/Unit Cell at Ef=  8.321711 eV
     lambda(    1)=  0.0244   gamma=    1.14 GHz
     lambda(    2)=  0.0244   gamma=    1.14 GHz
     lambda(    3)=  0.0002   gamma=    0.02 GHz
     Gaussian Broadening:   0.010 Ry, ngauss=   0
     DOS =  1.881758 states/spin/Ry/Unit Cell at Ef=  8.327076 eV
     lambda(    1)=  0.1834   gamma=   12.07 GHz
     lambda(    2)=  0.1855   gamma=   12.21 GHz
     lambda(    3)=  0.0897   gamma=   16.11 GHz
     Gaussian Broadening:   0.015 Ry, ngauss=   0
     DOS =  2.123243 states/spin/Ry/Unit Cell at Ef=  8.328549 eV
     lambda(    1)=  0.1674   gamma=   12.43 GHz
     lambda(    2)=  0.1790   gamma=   13.30 GHz
     lambda(    3)=  0.1856   gamma=   37.62 GHz
     Gaussian Broadening:   0.020 Ry, ngauss=   0
     DOS =  2.249755 states/spin/Ry/Unit Cell at Ef=  8.324248 eV
     lambda(    1)=  0.1438   gamma=   11.31 GHz
     lambda(    2)=  0.1611   gamma=   12.67 GHz
     lambda(    3)=  0.2007   gamma=   43.10 GHz
     Gaussian Broadening:   0.025 Ry, ngauss=   0
     DOS =  2.329819 states/spin/Ry/Unit Cell at Ef=  8.317791 eV
     lambda(    1)=  0.1309   gamma=   10.67 GHz
     lambda(    2)=  0.1491   gamma=   12.15 GHz
     lambda(    3)=  0.1849   gamma=   41.12 GHz
     Gaussian Broadening:   0.030 Ry, ngauss=   0
     DOS =  2.396041 states/spin/Ry/Unit Cell at Ef=  8.311225 eV
     lambda(    1)=  0.1230   gamma=   10.31 GHz
     lambda(    2)=  0.1401   gamma=   11.74 GHz
     lambda(    3)=  0.1661   gamma=   37.98 GHz
     Gaussian Broadening:   0.035 Ry, ngauss=   0
     DOS =  2.455234 states/spin/Ry/Unit Cell at Ef=  8.305190 eV
     lambda(    1)=  0.1173   gamma=   10.07 GHz
     lambda(    2)=  0.1329   gamma=   11.41 GHz
     lambda(    3)=  0.1533   gamma=   35.91 GHz
     Gaussian Broadening:   0.040 Ry, ngauss=   0
     DOS =  2.507879 states/spin/Ry/Unit Cell at Ef=  8.299884 eV
     lambda(    1)=  0.1131   gamma=    9.92 GHz
     lambda(    2)=  0.1273   gamma=   11.16 GHz
     lambda(    3)=  0.1467   gamma=   35.11 GHz
     Gaussian Broadening:   0.045 Ry, ngauss=   0
     DOS =  2.552970 states/spin/Ry/Unit Cell at Ef=  8.295339 eV
     lambda(    1)=  0.1101   gamma=    9.83 GHz
     lambda(    2)=  0.1231   gamma=   10.99 GHz
     lambda(    3)=  0.1442   gamma=   35.14 GHz
     Gaussian Broadening:   0.050 Ry, ngauss=   0
     DOS =  2.589584 states/spin/Ry/Unit Cell at Ef=  8.291481 eV
     lambda(    1)=  0.1082   gamma=    9.79 GHz
     lambda(    2)=  0.1202   gamma=   10.88 GHz
     lambda(    3)=  0.1439   gamma=   35.56 GHz
 
 
     Number of q in the star =    3
     List of q in the star:
          1   0.000000000  -1.000000000   0.000000000
          2  -1.000000000   0.000000000   0.000000000
          3   0.000000000   0.000000000  -1.000000000
 
     init_run     :      0.01s CPU      0.01s WALL (       1 calls)
     electrons    :      0.91s CPU      0.94s WALL (       1 calls)

     Called by init_run:
     wfcinit      :      0.00s CPU      0.00s WALL (       1 calls)
     potinit      :      0.00s CPU      0.00s WALL (       1 calls)

     Called by electrons:
     c_bands      :      0.91s CPU      0.94s WALL (       1 calls)
     v_of_rho     :      0.00s CPU      0.00s WALL (       2 calls)

     Called by c_bands:
     init_us_2    :      0.01s CPU      0.01s WALL (     944 calls)
     cegterg      :      0.79s CPU      0.81s WALL (     125 calls)

     Called by sum_band:

     Called by *egterg:
     h_psi        :      0.93s CPU      1.01s WALL (    5886 calls)
     g_psi        :      0.00s CPU      0.01s WALL (    1582 calls)
     cdiaghg      :      0.30s CPU      0.26s WALL (    1700 calls)

     Called by h_psi:
     add_vuspsi   :      0.02s CPU      0.03s WALL (    5886 calls)

     General routines
     calbec       :      0.09s CPU      0.10s WALL (   11245 calls)
     fft          :      0.00s CPU      0.00s WALL (      43 calls)
     ffts         :      0.00s CPU      0.01s WALL (     183 calls)
     fftw         :      0.98s CPU      1.05s WALL (   38236 calls)
     davcio       :      0.02s CPU      0.03s WALL (    2454 calls)
 
     Parallel routines
     fft_scatter  :      0.26s CPU      0.30s WALL (   38462 calls)
 
     PHONON       :     4.89s CPU         5.07s WALL

     INITIALIZATION: 
     phq_setup    :      0.00s CPU      0.00s WALL (       1 calls)
     phq_init     :      0.07s CPU      0.07s WALL (       1 calls)
 
     phq_init     :      0.07s CPU      0.07s WALL (       1 calls)
     init_vloc    :      0.00s CPU      0.00s WALL (       2 calls)
     init_us_1    :      0.00s CPU      0.00s WALL (       2 calls)
 
     DYNAMICAL MATRIX:
     dynmat0      :      0.03s CPU      0.03s WALL (       1 calls)
     phqscf       :      1.46s CPU      1.57s WALL (       1 calls)
     dynmatrix    :      0.00s CPU      0.00s WALL (       1 calls)
 
     phqscf       :      1.46s CPU      1.57s WALL (       1 calls)
     solve_linter :      1.44s CPU      1.55s WALL (       2 calls)
     drhodv       :      0.01s CPU      0.01s WALL (       2 calls)
 
     dynmat0      :      0.03s CPU      0.03s WALL (       1 calls)
     dynmat_us    :      0.03s CPU      0.03s WALL (       1 calls)
     d2ionq       :      0.00s CPU      0.00s WALL (       1 calls)
 
     dynmat_us    :      0.03s CPU      0.03s WALL (       1 calls)
 
     phqscf       :      1.46s CPU      1.57s WALL (       1 calls)
     solve_linter :      1.44s CPU      1.55s WALL (       2 calls)
 
     solve_linter :      1.44s CPU      1.55s WALL (       2 calls)
     dvqpsi_us    :      0.07s CPU      0.08s WALL (     177 calls)
     ortho        :      0.02s CPU      0.02s WALL (     708 calls)
     cgsolve      :      0.62s CPU      0.67s WALL (     708 calls)
     incdrhoscf   :      0.09s CPU      0.09s WALL (     708 calls)
     vpsifft      :      0.06s CPU      0.07s WALL (     531 calls)
     dv_of_drho   :      0.00s CPU      0.00s WALL (      12 calls)
     mix_pot      :      0.00s CPU      0.00s WALL (       8 calls)
     psymdvscf    :      0.04s CPU      0.03s WALL (       8 calls)
 
     dvqpsi_us    :      0.07s CPU      0.08s WALL (     177 calls)
     dvqpsi_us_on :      0.00s CPU      0.00s WALL (     177 calls)
 
     cgsolve      :      0.62s CPU      0.67s WALL (     708 calls)
     ch_psi       :      0.56s CPU      0.61s WALL (    4061 calls)
 
     ch_psi       :      0.56s CPU      0.61s WALL (    4061 calls)
     last         :      0.07s CPU      0.08s WALL (    4061 calls)
 
     add_vuspsi   :      0.02s CPU      0.03s WALL (    5886 calls)
 
     incdrhoscf   :      0.09s CPU      0.09s WALL (     708 calls)
 
 
      General routines
     calbec       :      0.09s CPU      0.10s WALL (   11245 calls)
     fft          :      0.00s CPU      0.00s WALL (      43 calls)
     ffts         :      0.00s CPU      0.01s WALL (     183 calls)
     fftw         :      0.98s CPU      1.05s WALL (   38236 calls)
     davcio       :      0.02s CPU      0.03s WALL (    2454 calls)
     write_rec    :      0.02s CPU      0.02s WALL (      10 calls)
 
 
     PHONON       :     4.89s CPU         5.07s WALL

 
   This run was terminated on:  11:17:58   3Aug2016            

=------------------------------------------------------------------------------=
   JOB DONE.
=------------------------------------------------------------------------------=
