
     Program PWSCF v.5.4.0 (svn rev. 12620M) starts on 28Jul2016 at 11:23:40 

     This program is part of the open-source Quantum ESPRESSO suite
     for quantum simulation of materials; please cite
         "P. Giannozzi et al., J. Phys.:Condens. Matter 21 395502 (2009);
          URL http://www.quantum-espresso.org", 
     in publications or presentations arising from this work. More details at
     http://www.quantum-espresso.org/quote
 
           HOST :    x86_64-pc-linux-gnu
           ARCH :    x86_64
             CC :    icc
            CPP :    cpp
            F90 :    ifort
            F77 :    ifort
         DFLAGS :    -D__INTEL -D__FFTW -D__MPI -D__PARA -D__HDF5
      BLAS LIBS :    -lmkl_intel_lp64  -lmkl_sequential -lmkl_core
    LAPACK LIBS :    
       FFT LIBS :    
      MASS LIBS :    

     Parallel version (MPI), running on     2 processors
     R & G space division:  proc/nbgrp/npool/nimage =       2
     Waiting for input...
     Reading input from standard input
Warning: card &IONS ignored
Warning: card / ignored

     Current dimensions of program PWSCF are:
     Max number of different atomic species (ntypx) = 10
     Max number of k-points (npk) =  40000
     Max angular momentum in pseudopotentials (lmaxx) =  3

     Subspace diagonalization in iterative solution of the eigenvalue problem:
     a serial algorithm will be used

 
     Parallelization info
     --------------------
     sticks:   dense  smooth     PW     G-vecs:    dense   smooth      PW
     Min        2498    2498    622               132473   132473   16565
     Max        2499    2499    623               132474   132474   16566
     Sum        4997    4997   1245               264947   264947   33131
 


     bravais-lattice index     =            1
     lattice parameter (alat)  =      14.0000  a.u.
     unit-cell volume          =    2744.0000 (a.u.)^3
     number of atoms/cell      =            3
     number of atomic types    =            2
     number of electrons       =        16.00
     number of Kohn-Sham states=            8
     kinetic-energy cutoff     =      80.0000  Ry
     charge density cutoff     =     320.0000  Ry
     convergence threshold     =      1.0E-08
     mixing beta               =       0.7000
     number of iterations used =            8  plain     mixing
     Exchange-correlation      = SLA-PW-PBX-PBC ( 1  4  3  4 0 0)

     celldm(1)=  14.000000  celldm(2)=   0.000000  celldm(3)=   0.000000
     celldm(4)=   0.000000  celldm(5)=   0.000000  celldm(6)=   0.000000

     crystal axes: (cart. coord. in units of alat)
               a(1) = (   1.000000   0.000000   0.000000 )  
               a(2) = (   0.000000   1.000000   0.000000 )  
               a(3) = (   0.000000   0.000000   1.000000 )  

     reciprocal axes: (cart. coord. in units 2 pi/alat)
               b(1) = (  1.000000  0.000000  0.000000 )  
               b(2) = (  0.000000  1.000000  0.000000 )  
               b(3) = (  0.000000  0.000000  1.000000 )  


     PseudoPot. # 1 for  C read from file:
     /home/nvarini/espresso_hdf5/espresso/pseudo/C.pbe-hgh.UPF
     MD5 check sum: 0e67d267521f6aebc6a2c9accb749a71
     Pseudo is Norm-conserving, Zval =  4.0
     Generated in analytical, separable form
     Using radial grid of 1073 points,  1 beta functions with: 
                l(1) =   0

     PseudoPot. # 2 for  O read from file:
     /home/nvarini/espresso_hdf5/espresso/pseudo/O.pbe-hgh.UPF
     MD5 check sum: 631417d4da25374a53828d646ac41374
     Pseudo is Norm-conserving, Zval =  6.0
     Generated in analytical, separable form
     Using radial grid of 1095 points,  1 beta functions with: 
                l(1) =   0

     atomic species   valence    mass     pseudopotential
        C              4.00    12.01000      C( 1.00)
        O              6.00    15.99900      O( 1.00)

      2 Sym. Ops. (no inversion) found



   Cartesian axes

     site n.     atom                  positions (alat units)
         1           C   tau(   1) = (   0.4049470   0.4049470   0.4784535  )
         2           O   tau(   2) = (   0.5177052   0.5177052   0.4783309  )
         3           O   tau(   3) = (   0.2921718   0.2921718   0.4783276  )

     number of k points=     1
                       cart. coord. in units 2pi/alat
        k(    1) = (   0.0000000   0.0000000   0.0000000), wk =   2.0000000

     Dense  grid:   264947 G-vectors     FFT dimensions: (  80,  80,  80)

     Largest allocated arrays     est. size (Mb)     dimensions
        Kohn-Sham Wavefunctions         2.02 Mb     (   16566,    8)
        NL pseudopotentials             0.76 Mb     (   16566,    3)
        Each V/rho on FFT grid          3.91 Mb     (  256000)
        Each G-vector array             1.01 Mb     (  132474)
        G-vector shells                 0.01 Mb     (    1327)
     Largest temporary arrays     est. size (Mb)     dimensions
        Auxiliary wavefunctions         8.09 Mb     (   16566,   32)
        Each subspace H/S matrix        0.02 Mb     (      32,   32)
        Each <psi_i|beta_j> matrix      0.00 Mb     (       3,    8)
        Arrays for rho mixing          31.25 Mb     (  256000,    8)

     Initial potential from superposition of free atoms
     Check: negative starting charge=   -0.014798

     starting charge   15.99996, renormalised to   16.00000

     negative rho (up, down):  1.480E-02 0.000E+00
     Starting wfc are   12 randomized atomic wfcs

     total cpu time spent up to now is        0.8 secs

     per-process dynamical memory:    64.4 Mb

     Self-consistent Calculation

     iteration #  1     ecut=    80.00 Ry     beta=0.70
     Davidson diagonalization with overlap
     ethr =  1.00E-02,  avg # of iterations =  2.0

     negative rho (up, down):  3.908E-03 0.000E+00

     total cpu time spent up to now is        1.3 secs

     total energy              =     -74.76868067 Ry
     Harris-Foulkes estimate   =     -74.91470424 Ry
     estimated scf accuracy    <       0.24317333 Ry

     iteration #  2     ecut=    80.00 Ry     beta=0.70
     Davidson diagonalization with overlap
     ethr =  1.52E-03,  avg # of iterations =  3.0

     negative rho (up, down):  2.359E-03 0.000E+00

     total cpu time spent up to now is        1.8 secs

     total energy              =     -74.80473192 Ry
     Harris-Foulkes estimate   =     -74.94963340 Ry
     estimated scf accuracy    <       0.32185783 Ry

     iteration #  3     ecut=    80.00 Ry     beta=0.70
     Davidson diagonalization with overlap
     ethr =  1.52E-03,  avg # of iterations =  3.0

     negative rho (up, down):  2.768E-04 0.000E+00

     total cpu time spent up to now is        2.3 secs

     total energy              =     -74.86657618 Ry
     Harris-Foulkes estimate   =     -74.86758128 Ry
     estimated scf accuracy    <       0.00376935 Ry

     iteration #  4     ecut=    80.00 Ry     beta=0.70
     Davidson diagonalization with overlap
     ethr =  2.36E-05,  avg # of iterations =  2.0

     negative rho (up, down):  1.970E-05 0.000E+00

     total cpu time spent up to now is        2.8 secs

     total energy              =     -74.86714657 Ry
     Harris-Foulkes estimate   =     -74.86724815 Ry
     estimated scf accuracy    <       0.00030075 Ry

     iteration #  5     ecut=    80.00 Ry     beta=0.70
     Davidson diagonalization with overlap
     ethr =  1.88E-06,  avg # of iterations =  3.0

     negative rho (up, down):  2.201E-07 0.000E+00

     total cpu time spent up to now is        3.3 secs

     total energy              =     -74.86721789 Ry
     Harris-Foulkes estimate   =     -74.86721766 Ry
     estimated scf accuracy    <       0.00000178 Ry

     iteration #  6     ecut=    80.00 Ry     beta=0.70
     Davidson diagonalization with overlap
     ethr =  1.11E-08,  avg # of iterations =  3.0

     negative rho (up, down):  1.529E-08 0.000E+00

     total cpu time spent up to now is        3.8 secs

     total energy              =     -74.86721893 Ry
     Harris-Foulkes estimate   =     -74.86721913 Ry
     estimated scf accuracy    <       0.00000052 Ry

     iteration #  7     ecut=    80.00 Ry     beta=0.70
     Davidson diagonalization with overlap
     ethr =  3.26E-09,  avg # of iterations =  3.0

     total cpu time spent up to now is        4.3 secs

     total energy              =     -74.86721902 Ry
     Harris-Foulkes estimate   =     -74.86721905 Ry
     estimated scf accuracy    <       0.00000011 Ry

     iteration #  8     ecut=    80.00 Ry     beta=0.70
     Davidson diagonalization with overlap
     ethr =  6.63E-10,  avg # of iterations =  3.0

     total cpu time spent up to now is        4.8 secs

     End of self-consistent calculation

          k = 0.0000 0.0000 0.0000 ( 33131 PWs)   bands (ev):

   -28.4041 -27.4295 -13.1821 -11.9400 -11.7967 -11.7929  -8.2373  -8.2344

     highest occupied level (ev):    -8.2344

!    total energy              =     -74.86721904 Ry
     Harris-Foulkes estimate   =     -74.86721905 Ry
     estimated scf accuracy    <          4.0E-09 Ry

     The total energy is the sum of the following terms:

     one-electron contribution =    -137.19549868 Ry
     hartree contribution      =      70.85182465 Ry
     xc contribution           =     -17.17570813 Ry
     ewald contribution        =       8.65216311 Ry

     convergence has been achieved in   8 iterations

     Writing output data file CO2.save
 
     init_run     :      0.63s CPU      0.66s WALL (       1 calls)
     electrons    :      3.99s CPU      4.04s WALL (       1 calls)

     Called by init_run:
     wfcinit      :      0.13s CPU      0.13s WALL (       1 calls)
     potinit      :      0.23s CPU      0.25s WALL (       1 calls)

     Called by electrons:
     c_bands      :      1.88s CPU      1.88s WALL (       8 calls)
     sum_band     :      0.59s CPU      0.59s WALL (       8 calls)
     v_of_rho     :      1.43s CPU      1.45s WALL (       9 calls)
     mix_rho      :      0.23s CPU      0.26s WALL (       8 calls)

     Called by c_bands:
     init_us_2    :      0.03s CPU      0.03s WALL (      17 calls)
     cegterg      :      1.86s CPU      1.87s WALL (       8 calls)

     Called by sum_band:

     Called by *egterg:
     h_psi        :      1.70s CPU      1.70s WALL (      31 calls)
     g_psi        :      0.03s CPU      0.03s WALL (      22 calls)
     cdiaghg      :      0.01s CPU      0.01s WALL (      30 calls)

     Called by h_psi:
     add_vuspsi   :      0.03s CPU      0.02s WALL (      31 calls)

     General routines
     calbec       :      0.02s CPU      0.02s WALL (      31 calls)
     fft          :      0.60s CPU      0.61s WALL (      98 calls)
     fftw         :      1.65s CPU      1.66s WALL (     476 calls)
 
     Parallel routines
     fft_scatter  :      0.57s CPU      0.57s WALL (     574 calls)
 
     PWSCF        :     4.78s CPU         4.90s WALL

 
   This run was terminated on:  11:23:45  28Jul2016            

=------------------------------------------------------------------------------=
   JOB DONE.
=------------------------------------------------------------------------------=
