
     Program DYNMAT v.5.4.0 (svn rev. 12828M) starts on 23Aug2016 at 15:50:27 

     This program is part of the open-source Quantum ESPRESSO suite
     for quantum simulation of materials; please cite
         "P. Giannozzi et al., J. Phys.:Condens. Matter 21 395502 (2009);
          URL http://www.quantum-espresso.org", 
     in publications or presentations arising from this work. More details at
     http://www.quantum-espresso.org/quote
 
           HOST :    x86_64-pc-linux-gnu
           ARCH :    x86_64
             CC :    icc
            CPP :    cpp
            F90 :    ifort
            F77 :    ifort
         DFLAGS :    -D__INTEL -D__FFTW -D__MPI -D__PARA -D__HDF5
      BLAS LIBS :    -lmkl_intel_lp64  -lmkl_sequential -lmkl_core
    LAPACK LIBS :    
       FFT LIBS :    
      MASS LIBS :    

     Parallel version (MPI), running on     1 processors

     Reading Dynamical Matrix from file dmat.co2
     ...Force constants read
     ...epsilon and Z* read
     Acoustic Sum Rule: || Z*(ASR) - Z*(orig)|| =    4.846100E-01
     Acoustic Sum Rule: ||dyn(ASR) - dyn(orig)||=    1.344721E+00
     A direction for q was not specified:TO-LO splitting will be absent
     Max |d(i,j)-d*(j,i)| =  0.000272
     Max |d(i,j)-d*(j,i)|/|d(i,j)|:   0.1768%

     Polarizability (A^3 units)
     multiply by 0.971500 for Clausius-Mossotti correction
         3.208339    1.105333   -0.000272
         1.105333    3.208339   -0.000272
         0.000036    0.000036    2.126503

     IR activities are in (D/A)^2/amu units

# mode   [cm-1]    [THz]      IR
    1   -849.30  -25.4614    0.0284
    2    -27.68   -0.8297    0.0000
    3      0.09    0.0027    0.0000
    4     19.53    0.5855    0.0000
    5     80.28    2.4068    0.0000
    6    590.62   17.7064    0.0445
    7    622.18   18.6525    0.4203
    8   1323.26   39.6703    0.0029
    9   2354.42   70.5836   13.0966
 
     DYNMAT       :     0.00s CPU         0.00s WALL

 
   This run was terminated on:  15:50:27  23Aug2016            

=------------------------------------------------------------------------------=
   JOB DONE.
=------------------------------------------------------------------------------=
