ANIMSTEPS  12
CRYSTAL
PRIMVEC
    5.219999979    0.000000000    0.000000000
    0.000000000    2.901185069   -1.674999988
    0.000000000    0.000000000    3.349999976
PRIMCOORD  1
      4   1
   Zn     6.73677   1.63458  -0.17206  -0.00058   0.02626   0.01699
   Zn     4.13630   0.66824   1.50188   0.00100  -0.02469  -0.00997
   O      3.52312   1.63576  -0.17358  -0.00059  -0.07166  -0.03651
   O      6.13134   0.66943   1.50352   0.00093   0.03611   0.02320
PRIMCOORD  2
      4   1
   Zn     6.73677   1.63458  -0.17206   0.01902   0.02326   0.00193
   Zn     4.13630   0.66824   1.50188   0.04440  -0.02506   0.01346
   O      3.52312   1.63576  -0.17358   0.01900   0.02300   0.05051
   O      6.13134   0.66943   1.50352   0.04442  -0.02492  -0.01664
PRIMCOORD  3
      4   1
   Zn     6.73677   1.63458  -0.17206  -0.03698   0.05202  -0.02241
   Zn     4.13630   0.66824   1.50188  -0.01164   0.00296  -0.01136
   O      3.52312   1.63576  -0.17358  -0.03701   0.04151   0.02018
   O      6.13134   0.66943   1.50352  -0.01162   0.00947  -0.03776
PRIMCOORD  4
      4   1
   Zn     6.73677   1.63458  -0.17206   0.01169   0.02795   0.04717
   Zn     4.13630   0.66824   1.50188  -0.00785   0.03848   0.02291
   O      3.52312   1.63576  -0.17358   0.01171   0.04002   0.01664
   O      6.13134   0.66943   1.50352  -0.00786   0.03099   0.04186
PRIMCOORD  5
      4   1
   Zn     6.73677   1.63458  -0.17206   0.02665   0.01168  -0.02992
   Zn     4.13630   0.66824   1.50188   0.02248   0.03683  -0.02187
   O      3.52312   1.63576  -0.17358   0.02665  -0.00559  -0.04789
   O      6.13134   0.66943   1.50352   0.02247   0.04757  -0.01076
PRIMCOORD  6
      4   1
   Zn     6.73677   1.63458  -0.17206  -0.02248  -0.00557  -0.02181
   Zn     4.13630   0.66824   1.50188   0.01453   0.01311   0.04648
   O      3.52312   1.63576  -0.17358  -0.02252  -0.05468   0.02090
   O      6.13134   0.66943   1.50352   0.01454   0.04362   0.01990
PRIMCOORD  7
      4   1
   Zn     6.73677   1.63458  -0.17206   0.00586   0.00541   0.00466
   Zn     4.13630   0.66824   1.50188  -0.00604  -0.00300   0.02774
   O      3.52312   1.63576  -0.17358   0.00818   0.00260  -0.06171
   O      6.13134   0.66943   1.50352  -0.00744  -0.01245  -0.07077
PRIMCOORD  8
      4   1
   Zn     6.73677   1.63458  -0.17206   0.00154  -0.01053  -0.00301
   Zn     4.13630   0.66824   1.50188  -0.00144  -0.02224   0.00428
   O      3.52312   1.63576  -0.17358   0.00039   0.05709  -0.01196
   O      6.13134   0.66943   1.50352  -0.00079   0.07690   0.00676
PRIMCOORD  9
      4   1
   Zn     6.73677   1.63458  -0.17206  -0.02691  -0.01860   0.03392
   Zn     4.13630   0.66824   1.50188   0.02742   0.01275  -0.01939
   O      3.52312   1.63576  -0.17358  -0.02694  -0.00678   0.00490
   O      6.13134   0.66943   1.50352   0.02488   0.03066  -0.06429
PRIMCOORD 10
      4   1
   Zn     6.73677   1.63458  -0.17206  -0.01925  -0.00021   0.00022
   Zn     4.13630   0.66824   1.50188  -0.01412   0.00002  -0.00030
   O      3.52312   1.63576  -0.17358   0.07607   0.00064  -0.00055
   O      6.13134   0.66943   1.50352   0.06035   0.00010   0.00086
PRIMCOORD 11
      4   1
   Zn     6.73677   1.63458  -0.17206  -0.02186   0.00028   0.00099
   Zn     4.13630   0.66824   1.50188   0.02364   0.00024   0.00201
   O      3.52312   1.63576  -0.17358  -0.00084   0.03295  -0.06324
   O      6.13134   0.66943   1.50352  -0.00642  -0.03509   0.05099
PRIMCOORD 12
      4   1
   Zn     6.73677   1.63458  -0.17206   0.00856   0.00011   0.00071
   Zn     4.13630   0.66824   1.50188  -0.01216   0.00034   0.00084
   O      3.52312   1.63576  -0.17358  -0.05986   0.00824  -0.01800
   O      6.13134   0.66943   1.50352   0.07459  -0.01011   0.01166
