[Molden Format]
[FREQ]
    0.00
    0.00
    0.00
    0.00
    0.00
    0.00
   41.41
  103.58
  158.84
  214.77
  276.08
  337.58
[FR-COORD]
   Zn         12.73064        3.08890       -0.32514
   Zn          7.81648        1.26278        2.83814
   O           6.65774        3.09114       -0.32801
   O          11.58656        1.26504        2.84123
[FR-NORM-COORD]
 vibration     1
  -0.00583   0.26263   0.16986
   0.00998  -0.24693  -0.09974
  -0.00594  -0.71656  -0.36512
   0.00935   0.36107   0.23205
 vibration     2
   0.19022   0.23259   0.01934
   0.44399  -0.25059   0.13463
   0.18999   0.23003   0.50513
   0.44424  -0.24919  -0.16639
 vibration     3
  -0.36982   0.52025  -0.22413
  -0.11636   0.02963  -0.11360
  -0.37006   0.41509   0.20183
  -0.11618   0.09475  -0.37757
 vibration     4
   0.11686   0.27955   0.47173
  -0.07846   0.38479   0.22906
   0.11705   0.40017   0.16638
  -0.07857   0.30991   0.41861
 vibration     5
   0.26645   0.11676  -0.29923
   0.22482   0.36831  -0.21869
   0.26647  -0.05593  -0.47892
   0.22467   0.47568  -0.10759
 vibration     6
  -0.22483  -0.05570  -0.21808
   0.14533   0.13114   0.46483
  -0.22521  -0.54677   0.20897
   0.14537   0.43624   0.19904
 vibration     7
   0.05858   0.05408   0.04659
  -0.06038  -0.02997   0.27743
   0.08183   0.02598  -0.61706
  -0.07444  -0.12455  -0.70765
 vibration     8
   0.01540  -0.10531  -0.03011
  -0.01442  -0.22243   0.04283
   0.00391   0.57088  -0.11958
  -0.00790   0.76902   0.06756
 vibration     9
  -0.26913  -0.18595   0.33921
   0.27417   0.12755  -0.19393
  -0.26943  -0.06785   0.04898
   0.24883   0.30662  -0.64293
 vibration    10
  -0.19252  -0.00207   0.00221
  -0.14116   0.00024  -0.00296
   0.76068   0.00643  -0.00551
   0.60349   0.00104   0.00860
 vibration    11
  -0.21864   0.00284   0.00990
   0.23639   0.00239   0.02006
  -0.00840   0.32954  -0.63237
  -0.06417  -0.35091   0.50989
 vibration    12
   0.08561   0.00115   0.00707
  -0.12165   0.00343   0.00842
  -0.59861   0.08239  -0.17997
   0.74592  -0.10110   0.11664
