ANIMSTEPS  12
CRYSTAL
PRIMVEC
    5.219999979    0.000000000    0.000000000
    0.000000000    2.901185069   -1.674999988
    0.000000000    0.000000000    3.349999976
PRIMCOORD  1
      4   1
   Zn     6.73677   1.63458  -0.17206   0.00216  -0.01463  -0.00921
   Zn     4.13630   0.66824   1.50188   0.00034   0.01311   0.00398
   O      3.52312   1.63576  -0.17358   0.00217   0.07452   0.03877
   O      6.13134   0.66943   1.50352   0.00040  -0.04225  -0.02575
PRIMCOORD  2
      4   1
   Zn     6.73677   1.63458  -0.17206   0.02921   0.01943   0.01189
   Zn     4.13630   0.66824   1.50188   0.04819  -0.03184   0.01178
   O      3.52312   1.63576  -0.17358   0.02919   0.00258   0.03861
   O      6.13134   0.66943   1.50352   0.04820  -0.02140  -0.00476
PRIMCOORD  3
      4   1
   Zn     6.73677   1.63458  -0.17206  -0.02895   0.06617  -0.00813
   Zn     4.13630   0.66824   1.50188  -0.00656  -0.00655  -0.01532
   O      3.52312   1.63576  -0.17358  -0.02898   0.04307   0.02154
   O      6.13134   0.66943   1.50352  -0.00655   0.00777  -0.03368
PRIMCOORD  4
      4   1
   Zn     6.73677   1.63458  -0.17206   0.01429   0.02144   0.04559
   Zn     4.13630   0.66824   1.50188  -0.00593   0.04178   0.02592
   O      3.52312   1.63576  -0.17358   0.01431   0.03188   0.01280
   O      6.13134   0.66943   1.50352  -0.00594   0.03530   0.04626
PRIMCOORD  5
      4   1
   Zn     6.73677   1.63458  -0.17206  -0.01846  -0.00997   0.04288
   Zn     4.13630   0.66824   1.50188  -0.02776  -0.04199   0.00994
   O      3.52312   1.63576  -0.17358  -0.01845   0.00440   0.03332
   O      6.13134   0.66943   1.50352  -0.02776  -0.05093   0.01592
PRIMCOORD  6
      4   1
   Zn     6.73677   1.63458  -0.17206  -0.03337  -0.00439  -0.02122
   Zn     4.13630   0.66824   1.50188   0.01196   0.00365   0.05384
   O      3.52312   1.63576  -0.17358  -0.03341  -0.03356   0.04895
   O      6.13134   0.66943   1.50352   0.01199   0.02178   0.01024
PRIMCOORD  7
      4   1
   Zn     6.73677   1.63458  -0.17206   0.00576   0.00537   0.00482
   Zn     4.13630   0.66824   1.50188  -0.00592  -0.00283   0.02760
   O      3.52312   1.63576  -0.17358   0.00799   0.00225  -0.06149
   O      6.13134   0.66943   1.50352  -0.00732  -0.01266  -0.07104
PRIMCOORD  8
      4   1
   Zn     6.73677   1.63458  -0.17206   0.00144  -0.01060  -0.00281
   Zn     4.13630   0.66824   1.50188  -0.00134  -0.02218   0.00430
   O      3.52312   1.63576  -0.17358   0.00027   0.05702  -0.01217
   O      6.13134   0.66943   1.50352  -0.00066   0.07700   0.00604
PRIMCOORD  9
      4   1
   Zn     6.73677   1.63458  -0.17206  -0.02711  -0.01858   0.03400
   Zn     4.13630   0.66824   1.50188   0.02741   0.01302  -0.01968
   O      3.52312   1.63576  -0.17358  -0.02668  -0.00739   0.00554
   O      6.13134   0.66943   1.50352   0.02544   0.03014  -0.06405
PRIMCOORD 10
      4   1
   Zn     6.73677   1.63458  -0.17206  -0.01934  -0.00014   0.00012
   Zn     4.13630   0.66824   1.50188  -0.01400  -0.00002  -0.00020
   O      3.52312   1.63576  -0.17358   0.07627   0.00091  -0.00106
   O      6.13134   0.66943   1.50352   0.06007  -0.00026   0.00141
PRIMCOORD 11
      4   1
   Zn     6.73677   1.63458  -0.17206  -0.02172   0.00027   0.00102
   Zn     4.13630   0.66824   1.50188   0.02379   0.00023   0.00202
   O      3.52312   1.63576  -0.17358  -0.00147   0.03299  -0.06329
   O      6.13134   0.66943   1.50352  -0.00699  -0.03501   0.05085
PRIMCOORD 12
      4   1
   Zn     6.73677   1.63458  -0.17206   0.00853   0.00012   0.00069
   Zn     4.13630   0.66824   1.50188  -0.01218   0.00034   0.00084
   O      3.52312   1.63576  -0.17358  -0.05972   0.00825  -0.01803
   O      6.13134   0.66943   1.50352   0.07468  -0.01017   0.01175
