[Molden Format]
[FREQ]
    0.00
    0.00
    0.00
    0.00
    0.00
    0.00
   42.58
  103.80
  157.91
  214.34
  275.97
  337.58
[FR-COORD]
   Zn         12.73064        3.08890       -0.32514
   Zn          7.81648        1.26278        2.83814
   O           6.65774        3.09114       -0.32801
   O          11.58656        1.26504        2.84123
[FR-NORM-COORD]
 vibration     1
   0.02164  -0.14629  -0.09206
   0.00344   0.13115   0.03982
   0.02174   0.74517   0.38770
   0.00401  -0.42246  -0.25751
 vibration     2
   0.29212   0.19427   0.11895
   0.48189  -0.31838   0.11781
   0.29193   0.02584   0.38611
   0.48196  -0.21397  -0.04761
 vibration     3
  -0.28955   0.66173  -0.08133
  -0.06558  -0.06551  -0.15323
  -0.28977   0.43068   0.21535
  -0.06552   0.07770  -0.33679
 vibration     4
   0.14286   0.21442   0.45585
  -0.05931   0.41776   0.25916
   0.14305   0.31883   0.12797
  -0.05944   0.35299   0.46258
 vibration     5
  -0.18458  -0.09969   0.42880
  -0.27761  -0.41994   0.09940
  -0.18448   0.04397   0.33322
  -0.27761  -0.50931   0.15924
 vibration     6
  -0.33366  -0.04386  -0.21221
   0.11963   0.03655   0.53839
  -0.33410  -0.33565   0.48951
   0.11988   0.21782   0.10239
 vibration     7
   0.05759   0.05372   0.04816
  -0.05922  -0.02826   0.27600
   0.07990   0.02250  -0.61490
  -0.07323  -0.12658  -0.71037
 vibration     8
   0.01439  -0.10602  -0.02805
  -0.01342  -0.22179   0.04304
   0.00269   0.57018  -0.12173
  -0.00665   0.77001   0.06044
 vibration     9
  -0.27108  -0.18581   0.33997
   0.27410   0.13016  -0.19684
  -0.26679  -0.07391   0.05538
   0.25443   0.30143  -0.64054
 vibration    10
  -0.19345  -0.00141   0.00117
  -0.14005  -0.00019  -0.00202
   0.76267   0.00909  -0.01059
   0.60075  -0.00256   0.01408
 vibration    11
  -0.21725   0.00265   0.01022
   0.23794   0.00230   0.02021
  -0.01468   0.32986  -0.63292
  -0.06992  -0.35012   0.50851
 vibration    12
   0.08525   0.00125   0.00690
  -0.12183   0.00343   0.00844
  -0.59721   0.08252  -0.18025
   0.74676  -0.10165   0.11752
