
     Program DYNMAT v.5.4.0 (svn rev. 12782M) starts on 18Aug2016 at 16:50:39 

     This program is part of the open-source Quantum ESPRESSO suite
     for quantum simulation of materials; please cite
         "P. Giannozzi et al., J. Phys.:Condens. Matter 21 395502 (2009);
          URL http://www.quantum-espresso.org", 
     in publications or presentations arising from this work. More details at
     http://www.quantum-espresso.org/quote
 
           HOST :    x86_64-pc-linux-gnu
           ARCH :    x86_64
             CC :    icc
            CPP :    cpp
            F90 :    ifort
            F77 :    ifort
         DFLAGS :    -D__INTEL -D__FFTW -D__MPI -D__PARA -D__HDF5
      BLAS LIBS :    -lmkl_intel_lp64  -lmkl_sequential -lmkl_core
    LAPACK LIBS :    
       FFT LIBS :    
      MASS LIBS :    

     Parallel version (MPI), running on     1 processors

     Reading Dynamical Matrix from file dmat.zno
     ...Force constants read
     ...epsilon and Z* not read (not found on file)
     Acoustic Sum Rule: || Z*(ASR) - Z*(orig)|| =    0.000000E+00
     Acoustic Sum Rule: ||dyn(ASR) - dyn(orig)||=    2.710672E-01
     A direction for q was not specified:TO-LO splitting will be absent

     Polarizability (A^3 units)
     multiply by 1.000000 for Clausius-Mossotti correction
         0.000000    0.000000    0.000000
         0.000000    0.000000    0.000000
         0.000000    0.000000    0.000000

     IR activities are in (D/A)^2/amu units

# mode   [cm-1]    [THz]      IR
    1     -0.00   -0.0000    0.0000
    2     -0.00   -0.0000    0.0000
    3     -0.00   -0.0000    0.0000
    4      0.00    0.0000    0.0000
    5      0.00    0.0000    0.0000
    6      0.00    0.0000    0.0000
    7     41.41    1.2416    0.0000
    8    103.58    3.1052    0.0000
    9    158.84    4.7619    0.0000
   10    214.77    6.4387    0.0000
   11    276.08    8.2767    0.0000
   12    337.58   10.1204    0.0000
 
     DYNMAT       :     0.01s CPU         0.01s WALL

 
   This run was terminated on:  16:50:39  18Aug2016            

=------------------------------------------------------------------------------=
   JOB DONE.
=------------------------------------------------------------------------------=
