
     Program PWSCF v.5.4.0 (svn rev. 12590M) starts on 21Jul2016 at 15:47:22 

     This program is part of the open-source Quantum ESPRESSO suite
     for quantum simulation of materials; please cite
         "P. Giannozzi et al., J. Phys.:Condens. Matter 21 395502 (2009);
          URL http://www.quantum-espresso.org", 
     in publications or presentations arising from this work. More details at
     http://www.quantum-espresso.org/quote
 
           HOST :    x86_64-pc-linux-gnu
           ARCH :    x86_64
             CC :    icc
            CPP :    cpp
            F90 :    gfortran
            F77 :    gfortran
         DFLAGS :    -D__GFORTRAN -D__STD_F95 -D__DFTI -D__MPI -D__PARA -D__HDF5
      BLAS LIBS :    -lmkl_gf_lp64  -lmkl_sequential -lmkl_core
    LAPACK LIBS :    
       FFT LIBS :    
      MASS LIBS :    

     Parallel version (MPI), running on     2 processors
     R & G space division:  proc/nbgrp/npool/nimage =       2
     Waiting for input...
     Reading input from standard input

     Current dimensions of program PWSCF are:
     Max number of different atomic species (ntypx) = 10
     Max number of k-points (npk) =  40000
     Max angular momentum in pseudopotentials (lmaxx) =  3

     IMPORTANT: XC functional enforced from input :
     Exchange-correlation      = VDW-DF ( 1  4  4  0 1 0)
     Any further DFT definition will be discarded
     Please, verify this is what you really want

               file O.pbe-rrkjus.UPF: wavefunction(s)  2S renormalized
               file H.pbe-rrkjus.UPF: wavefunction(s)  1S renormalized

     gamma-point specific algorithms are used

     Subspace diagonalization in iterative solution of the eigenvalue problem:
     a serial algorithm will be used

 
     Parallelization info
     --------------------
     sticks:   dense  smooth     PW     G-vecs:    dense   smooth      PW
     Min        1538    1024    257                80629    43873    5485
     Max        1539    1025    258                80634    43904    5486
     Sum        3077    2049    515               161263    87777   10971
     Tot        1539    1025    258
 


     bravais-lattice index     =            8
     lattice parameter (alat)  =      14.9500  a.u.
     unit-cell volume          =    3914.3646 (a.u.)^3
     number of atoms/cell      =            6
     number of atomic types    =            2
     number of electrons       =        16.00
     number of Kohn-Sham states=            8
     kinetic-energy cutoff     =      30.2010  Ry
     charge density cutoff     =     181.2060  Ry
     convergence threshold     =      1.0E-08
     mixing beta               =       0.7000
     number of iterations used =            8  plain     mixing
     Exchange-correlation      = VDW-DF ( 1  4  4  0 1 0)

     celldm(1)=  14.950000  celldm(2)=   0.954545  celldm(3)=   1.227273
     celldm(4)=   0.000000  celldm(5)=   0.000000  celldm(6)=   0.000000

     crystal axes: (cart. coord. in units of alat)
               a(1) = (   1.000000   0.000000   0.000000 )  
               a(2) = (   0.000000   0.954545   0.000000 )  
               a(3) = (   0.000000   0.000000   1.227273 )  

     reciprocal axes: (cart. coord. in units 2 pi/alat)
               b(1) = (  1.000000  0.000000  0.000000 )  
               b(2) = (  0.000000  1.047619  0.000000 )  
               b(3) = (  0.000000  0.000000  0.814815 )  


     PseudoPot. # 1 for O  read from file:
     /home/nvarini/espresso_hdf5/espresso/pseudo/O.pbe-rrkjus.UPF
     MD5 check sum: 390ba29e75625707450f3bd3f0eb6be9
     Pseudo is Ultrasoft, Zval =  6.0
     Generated by new atomic code, or converted to UPF format
     Using radial grid of 1269 points,  4 beta functions with: 
                l(1) =   0
                l(2) =   0
                l(3) =   1
                l(4) =   1
     Q(r) pseudized with 0 coefficients 


     PseudoPot. # 2 for H  read from file:
     /home/nvarini/espresso_hdf5/espresso/pseudo/H.pbe-rrkjus.UPF
     MD5 check sum: 7cc9d459525c9a0585f487a71c3c9563
     Pseudo is Ultrasoft, Zval =  1.0
     Generated by new atomic code, or converted to UPF format
     Using radial grid of 1061 points,  2 beta functions with: 
                l(1) =   0
                l(2) =   0
     Q(r) pseudized with 0 coefficients 


     vdW kernel table read from file vdW_kernel_table
     MD5 check sum: 88c60d17101ec99b63477f765c8de84d

     atomic species   valence    mass     pseudopotential
        O              6.00    15.99940     O ( 1.00)
        H              1.00     1.00794     H ( 1.00)

      2 Sym. Ops. (no inversion) found


                                    s                        frac. trans.

      isym =  1     identity                                     

 cryst.   s( 1) = (     1          0          0      )
                  (     0          1          0      )
                  (     0          0          1      )

 cart.    s( 1) = (  1.0000000  0.0000000  0.0000000 )
                  (  0.0000000  1.0000000  0.0000000 )
                  (  0.0000000  0.0000000  1.0000000 )


      isym =  2     inv. 180 deg rotation - cart. axis [1,0,0]   

 cryst.   s( 2) = (    -1          0          0      )
                  (     0          1          0      )
                  (     0          0          1      )

 cart.    s( 2) = ( -1.0000000  0.0000000  0.0000000 )
                  (  0.0000000  1.0000000  0.0000000 )
                  (  0.0000000  0.0000000  1.0000000 )


     point group C_s (m)    
     there are  2 classes
     the character table:

       E     s    
A'     1.00  1.00
A''    1.00 -1.00

     the symmetry operations in each class and the name of the first element:

     E        1
          identity                                               
     s        2
          inv. 180 deg rotation - cart. axis [1,0,0]             

   Cartesian axes

     site n.     atom                  positions (alat units)
         1           O   tau(   1) = (   0.0000000   0.0016540  -0.0072484  )
         2           H   tau(   2) = (   0.0000000   0.0981485  -0.0826521  )
         3           H   tau(   3) = (   0.0000000   0.0490883   0.1065556  )
         4           O   tau(   4) = (   0.0000000   0.1117595   0.3550478  )
         5           H   tau(   5) = (  -0.0975766   0.0656956   0.4133167  )
         6           H   tau(   6) = (   0.0975766   0.0656956   0.4133167  )

   Crystallographic axes

     site n.     atom                  positions (cryst. coord.)
         1           O   tau(   1) = (  0.0000000  0.0017328 -0.0059061  )
         2           H   tau(   2) = (  0.0000000  0.1028222 -0.0673462  )
         3           H   tau(   3) = (  0.0000000  0.0514258  0.0868231  )
         4           O   tau(   4) = (  0.0000000  0.1170814  0.2892982  )
         5           H   tau(   5) = ( -0.0975766  0.0688240  0.3367766  )
         6           H   tau(   6) = (  0.0975766  0.0688240  0.3367766  )

     number of k points=     1
                       cart. coord. in units 2pi/alat
        k(    1) = (   0.0000000   0.0000000   0.0000000), wk =   2.0000000

                       cryst. coord.
        k(    1) = (   0.0000000   0.0000000   0.0000000), wk =   2.0000000

     Dense  grid:    80632 G-vectors     FFT dimensions: (  72,  64,  80)

     Smooth grid:    43889 G-vectors     FFT dimensions: (  54,  50,  72)

     Largest allocated arrays     est. size (Mb)     dimensions
        Kohn-Sham Wavefunctions         0.33 Mb     (    2743,    8)
        NL pseudopotentials             1.00 Mb     (    2743,   24)
        Each V/rho on FFT grid          2.81 Mb     (  184320)
        Each G-vector array             0.31 Mb     (   40317)
        G-vector shells                 0.12 Mb     (   15565)
     Largest temporary arrays     est. size (Mb)     dimensions
        Auxiliary wavefunctions         0.67 Mb     (    2743,   32)
        Each subspace H/S matrix        0.01 Mb     (      32,   32)
        Each <psi_i|beta_j> matrix      0.00 Mb     (      24,    8)
        Arrays for rho mixing          22.50 Mb     (  184320,    8)

     Initial potential from superposition of free atoms

     starting charge   15.61518, renormalised to   16.00000

     negative rho (up, down):  2.471E-05 0.000E+00


     %%%%%%%%%%%%%%%%%%%%%%%%%%%%%%%%%%%%%%%%%%%%%%%%%%%%%%%%%%%%%%%%%%%%%%%%
     %                                                                      %
     % You are using vdW-DF, which was implemented by the Thonhauser group. %
     % Please cite the following two papers that made this development      %
     % possible and the two reviews that describe the various versions:     %
     %                                                                      %
     %   T. Thonhauser et al., PRL 115, 136402 (2015).                      %
     %   T. Thonhauser et al., PRB 76, 125112 (2007).                       %
     %   K. Berland et al., Rep. Prog. Phys. 78, 066501 (2015).             %
     %   D.C. Langreth et al., J. Phys.: Condens. Matter 21, 084203 (2009). %
     %                                                                      %
     %                                                                      %
     % If you are calculating the stress with vdW-DF, please also cite:     %
     %                                                                      %
     %   R. Sabatini et al., J. Phys.: Condens. Matter 24, 424209 (2012).   %
     %                                                                      %
     %%%%%%%%%%%%%%%%%%%%%%%%%%%%%%%%%%%%%%%%%%%%%%%%%%%%%%%%%%%%%%%%%%%%%%%%


     Carrying out vdW-DF run using the following parameters:
     Nqs    =  20  Npoints =  1024  r_max =  100.000
     q_mesh =  0.00001000  0.04494208  0.09755937  0.15916263
               0.23128650  0.31572767  0.41458969  0.53033537
               0.66584808  0.82450364  1.01025438  1.22772762
               1.48234092  1.78043706  2.12944203  2.53805004
               3.01644009  3.57652955  4.23227104  5.00000000


     -----------------------------------------------
     Non-local corr. energy    =       0.27488898 Ry
     -----------------------------------------------

     Starting wfc are   12 randomized atomic wfcs

     total cpu time spent up to now is        2.1 secs

     per-process dynamical memory:    51.2 Mb

     Self-consistent Calculation

     iteration #  1     ecut=    30.20 Ry     beta=0.70
     Davidson diagonalization with overlap
     ethr =  1.00E-02,  avg # of iterations =  2.0

     negative rho (up, down):  2.105E-05 0.000E+00


     -----------------------------------------------
     Non-local corr. energy    =       0.30232658 Ry
     -----------------------------------------------


     total cpu time spent up to now is        3.1 secs

     total energy              =     -68.60900825 Ry
     Harris-Foulkes estimate   =     -69.74986128 Ry
     estimated scf accuracy    <       1.48307856 Ry

     iteration #  2     ecut=    30.20 Ry     beta=0.70
     Davidson diagonalization with overlap
     ethr =  9.27E-03,  avg # of iterations =  2.0

     negative rho (up, down):  7.093E-05 0.000E+00


     -----------------------------------------------
     Non-local corr. energy    =       0.29915939 Ry
     -----------------------------------------------


     total cpu time spent up to now is        4.0 secs

     total energy              =     -68.82972775 Ry
     Harris-Foulkes estimate   =     -69.34337456 Ry
     estimated scf accuracy    <       0.99552132 Ry

     iteration #  3     ecut=    30.20 Ry     beta=0.70
     Davidson diagonalization with overlap
     ethr =  6.22E-03,  avg # of iterations =  2.0

     negative rho (up, down):  5.943E-04 0.000E+00


     -----------------------------------------------
     Non-local corr. energy    =       0.30435540 Ry
     -----------------------------------------------


     total cpu time spent up to now is        4.9 secs

     total energy              =     -69.04901505 Ry
     Harris-Foulkes estimate   =     -69.06867471 Ry
     estimated scf accuracy    <       0.03433178 Ry

     iteration #  4     ecut=    30.20 Ry     beta=0.70
     Davidson diagonalization with overlap
     ethr =  2.15E-04,  avg # of iterations =  2.0

     negative rho (up, down):  4.990E-04 0.000E+00


     -----------------------------------------------
     Non-local corr. energy    =       0.30389706 Ry
     -----------------------------------------------


     total cpu time spent up to now is        5.8 secs

     total energy              =     -69.05603731 Ry
     Harris-Foulkes estimate   =     -69.05642277 Ry
     estimated scf accuracy    <       0.00066356 Ry

     iteration #  5     ecut=    30.20 Ry     beta=0.70
     Davidson diagonalization with overlap
     ethr =  4.15E-06,  avg # of iterations =  2.0

     negative rho (up, down):  1.560E-03 0.000E+00


     -----------------------------------------------
     Non-local corr. energy    =       0.30408754 Ry
     -----------------------------------------------


     total cpu time spent up to now is        6.7 secs

     total energy              =     -69.05624043 Ry
     Harris-Foulkes estimate   =     -69.05621599 Ry
     estimated scf accuracy    <       0.00003186 Ry

     iteration #  6     ecut=    30.20 Ry     beta=0.70
     Davidson diagonalization with overlap
     ethr =  1.99E-07,  avg # of iterations =  2.0

     negative rho (up, down):  1.651E-03 0.000E+00


     -----------------------------------------------
     Non-local corr. energy    =       0.30407224 Ry
     -----------------------------------------------


     total cpu time spent up to now is        7.6 secs

     total energy              =     -69.05624409 Ry
     Harris-Foulkes estimate   =     -69.05624636 Ry
     estimated scf accuracy    <       0.00000293 Ry

     iteration #  7     ecut=    30.20 Ry     beta=0.70
     Davidson diagonalization with overlap
     ethr =  1.83E-08,  avg # of iterations =  2.0

     negative rho (up, down):  1.669E-03 0.000E+00


     -----------------------------------------------
     Non-local corr. energy    =       0.30407122 Ry
     -----------------------------------------------


     total cpu time spent up to now is        8.4 secs

     total energy              =     -69.05624426 Ry
     Harris-Foulkes estimate   =     -69.05624458 Ry
     estimated scf accuracy    <       0.00000015 Ry

     iteration #  8     ecut=    30.20 Ry     beta=0.70
     Davidson diagonalization with overlap
     ethr =  9.18E-10,  avg # of iterations =  2.0

     negative rho (up, down):  1.672E-03 0.000E+00


     -----------------------------------------------
     Non-local corr. energy    =       0.30407088 Ry
     -----------------------------------------------


     total cpu time spent up to now is        9.3 secs

     total energy              =     -69.05624428 Ry
     Harris-Foulkes estimate   =     -69.05624433 Ry
     estimated scf accuracy    <       0.00000005 Ry

     iteration #  9     ecut=    30.20 Ry     beta=0.70
     Davidson diagonalization with overlap
     ethr =  3.34E-10,  avg # of iterations =  2.0

     negative rho (up, down):  1.670E-03 0.000E+00


     -----------------------------------------------
     Non-local corr. energy    =       0.30407026 Ry
     -----------------------------------------------


     total cpu time spent up to now is       10.2 secs

     End of self-consistent calculation

          k = 0.0000 0.0000 0.0000 (  5486 PWs)   bands (ev):

   -25.6784 -24.2951 -13.5964 -12.3221  -9.7645  -8.3469  -7.6870  -6.4200

     occupation numbers 
     1.0000   1.0000   1.0000   1.0000   1.0000   1.0000   1.0000   1.0000

     highest occupied level (ev):    -6.4200

!    total energy              =     -69.05624427 Ry
     Harris-Foulkes estimate   =     -69.05624429 Ry
     estimated scf accuracy    <          1.4E-09 Ry

     The total energy is the sum of the following terms:

     one-electron contribution =    -122.48451455 Ry
     hartree contribution      =      64.44250588 Ry
     xc contribution           =     -17.38795034 Ry
     ewald contribution        =       6.37371474 Ry

     convergence has been achieved in   9 iterations

     Forces acting on atoms (Ry/au):

     atom    1 type  1   force =     0.00000000   -0.00581914   -0.00391492
     atom    2 type  2   force =     0.00000000    0.00489182   -0.00359083
     atom    3 type  2   force =     0.00000000    0.00159684    0.00585698
     atom    4 type  1   force =     0.00000000    0.00524086   -0.00401812
     atom    5 type  2   force =    -0.00528287   -0.00295519    0.00283345
     atom    6 type  2   force =     0.00528287   -0.00295519    0.00283345
     The non-local contrib.  to forces
     atom    1 type  1   force =     0.00000000    2.37267643    0.53044648
     atom    2 type  2   force =     0.00000000   -0.15506397    0.13034267
     atom    3 type  2   force =     0.00000000   -0.07033450   -0.18904845
     atom    4 type  1   force =     0.00000000   -1.58436080    1.86435678
     atom    5 type  2   force =     0.16693717    0.07246475   -0.09223062
     atom    6 type  2   force =    -0.16693717    0.07246475   -0.09223062
     The ionic contribution  to forces
     atom    1 type  1   force =     0.00000000   -4.73264477   -3.37708282
     atom    2 type  2   force =    -0.00000000    2.84706666   -2.67875275
     atom    3 type  2   force =    -0.00000000    1.09619699    2.55289713
     atom    4 type  1   force =     0.00000000    3.37891499   -0.50587941
     atom    5 type  2   force =    -3.12370759   -1.29476694    2.00440892
     atom    6 type  2   force =     3.12370759   -1.29476694    2.00440892
     The local contribution  to forces
     atom    1 type  1   force =     0.00000004    2.35470860    2.84299056
     atom    2 type  2   force =     0.00000001   -2.68652216    2.54508340
     atom    3 type  2   force =     0.00000000   -1.02367734   -2.35772117
     atom    4 type  1   force =     0.00000000   -1.78868298   -1.36225662
     atom    5 type  2   force =     2.95148774    1.21993515   -1.90907994
     atom    6 type  2   force =    -2.95148774    1.21993515   -1.90907994
     The core correction contribution to forces
     atom    1 type  1   force =     0.00000000    0.00000000    0.00000000
     atom    2 type  2   force =     0.00000000    0.00000000    0.00000000
     atom    3 type  2   force =     0.00000000    0.00000000    0.00000000
     atom    4 type  1   force =     0.00000000    0.00000000    0.00000000
     atom    5 type  2   force =     0.00000000    0.00000000    0.00000000
     atom    6 type  2   force =     0.00000000    0.00000000    0.00000000
     The Hubbard contrib.    to forces
     atom    1 type  1   force =     0.00000000    0.00000000    0.00000000
     atom    2 type  2   force =     0.00000000    0.00000000    0.00000000
     atom    3 type  2   force =     0.00000000    0.00000000    0.00000000
     atom    4 type  1   force =     0.00000000    0.00000000    0.00000000
     atom    5 type  2   force =     0.00000000    0.00000000    0.00000000
     atom    6 type  2   force =     0.00000000    0.00000000    0.00000000
     The SCF correction term to forces
     atom    1 type  1   force =    -0.00000009    0.00002704   -0.00000290
     atom    2 type  2   force =    -0.00000001   -0.00000225    0.00000210
     atom    3 type  2   force =    -0.00000001   -0.00000186   -0.00000427
     atom    4 type  1   force =    -0.00000001   -0.00004390    0.00002738
     atom    5 type  2   force =    -0.00000020   -0.00000171    0.00000134
     atom    6 type  2   force =     0.00000020   -0.00000171    0.00000134

     Total force =     0.015994     Total SCF correction =     0.000059


     entering subroutine stress ...

          total   stress  (Ry/bohr**3)                   (kbar)     P=   -0.99
  -0.00000684   0.00000000   0.00000000         -1.01      0.00      0.00
   0.00000000  -0.00000750  -0.00000218          0.00     -1.10     -0.32
   0.00000000  -0.00000218  -0.00000589          0.00     -0.32     -0.87

     kinetic stress (kbar)    782.26      0.00      0.00
                                0.00    803.92     35.40
                                0.00     35.40    756.41

     local   stress (kbar)  -1271.86     -0.00     -0.00
                               -0.00  -1432.68   -164.63
                               -0.00   -164.63  -2519.92

     nonloc. stress (kbar)    281.32      0.00      0.00
                                0.00    283.65     11.34
                                0.00     11.34    272.04

     hartree stress (kbar)    590.16     -0.00      0.00
                               -0.00    692.67    103.39
                                0.00    103.39   1138.98

     exc-cor stress (kbar)   -209.63     -0.00      0.00
                               -0.00   -210.20     -1.04
                                0.00     -1.04   -207.98

     corecor stress (kbar)      0.00      0.00      0.00
                                0.00      0.00      0.00
                                0.00      0.00      0.00

     ewald   stress (kbar)   -176.25     -0.00     -0.00
                               -0.00   -141.46     15.26
                               -0.00     15.26    557.23

     hubbard stress (kbar)      0.00      0.00      0.00
                                0.00      0.00      0.00
                                0.00      0.00      0.00

     london  stress (kbar)      0.00      0.00      0.00
                                0.00      0.00      0.00
                                0.00      0.00      0.00

     XDM     stress (kbar)      0.00      0.00      0.00
                                0.00      0.00      0.00
                                0.00      0.00      0.00

     dft-nl  stress (kbar)      2.99      0.00     -0.00
                                0.00      3.01     -0.05
                               -0.00     -0.05      2.37

     TS-vdW  stress (kbar)      0.00      0.00      0.00
                                0.00      0.00      0.00
                                0.00      0.00      0.00



     Writing output data file water_vdw.save
 
     init_run     :      1.88s CPU      1.92s WALL (       1 calls)
     electrons    :      7.81s CPU      8.09s WALL (       1 calls)
     forces       :      0.47s CPU      0.47s WALL (       1 calls)
     stress       :      2.24s CPU      2.26s WALL (       1 calls)

     Called by init_run:
     wfcinit      :      0.02s CPU      0.02s WALL (       1 calls)
     potinit      :      1.16s CPU      1.19s WALL (       1 calls)

     Called by electrons:
     c_bands      :      0.40s CPU      0.40s WALL (       9 calls)
     sum_band     :      0.59s CPU      0.60s WALL (       9 calls)
     v_of_rho     :      7.06s CPU      7.35s WALL (      10 calls)
     v_h          :      0.05s CPU      0.05s WALL (      10 calls)
     v_xc         :      7.01s CPU      7.30s WALL (      10 calls)
     newd         :      0.32s CPU      0.34s WALL (      10 calls)
     mix_rho      :      0.11s CPU      0.11s WALL (       9 calls)

     Called by c_bands:
     init_us_2    :      0.02s CPU      0.02s WALL (      19 calls)
     regterg      :      0.37s CPU      0.37s WALL (       9 calls)

     Called by sum_band:
     sum_band:bec :      0.00s CPU      0.00s WALL (       9 calls)
     addusdens    :      0.38s CPU      0.38s WALL (       9 calls)

     Called by *egterg:
     h_psi        :      0.34s CPU      0.34s WALL (      28 calls)
     s_psi        :      0.01s CPU      0.01s WALL (      28 calls)
     g_psi        :      0.00s CPU      0.00s WALL (      18 calls)
     rdiaghg      :      0.01s CPU      0.01s WALL (      27 calls)
     regterg:over :      0.01s CPU      0.01s WALL (      18 calls)
     regterg:upda :      0.01s CPU      0.01s WALL (      18 calls)
     regterg:last :      0.00s CPU      0.00s WALL (       9 calls)

     Called by h_psi:
     h_psi:vloc   :      0.32s CPU      0.32s WALL (      28 calls)
     h_psi:vnl    :      0.02s CPU      0.02s WALL (      28 calls)
     add_vuspsi   :      0.01s CPU      0.01s WALL (      28 calls)

     General routines
     calbec       :      0.01s CPU      0.01s WALL (      42 calls)
     fft          :      2.74s CPU      2.75s WALL (     708 calls)
     ffts         :      0.04s CPU      0.04s WALL (      19 calls)
     fftw         :      0.32s CPU      0.32s WALL (     252 calls)
     interpolate  :      0.13s CPU      0.13s WALL (      19 calls)
 
     Parallel routines
     fft_scatter  :      1.12s CPU      1.12s WALL (     979 calls)
 
     PWSCF        :    12.83s CPU        13.40s WALL

 
   This run was terminated on:  15:47:35  21Jul2016            

=------------------------------------------------------------------------------=
   JOB DONE.
=------------------------------------------------------------------------------=
