
     Program PWSCF v.5.4.0 (svn rev. 12590M) starts on 21Jul2016 at 15:46:56 

     This program is part of the open-source Quantum ESPRESSO suite
     for quantum simulation of materials; please cite
         "P. Giannozzi et al., J. Phys.:Condens. Matter 21 395502 (2009);
          URL http://www.quantum-espresso.org", 
     in publications or presentations arising from this work. More details at
     http://www.quantum-espresso.org/quote
 
           HOST :    x86_64-pc-linux-gnu
           ARCH :    x86_64
             CC :    icc
            CPP :    cpp
            F90 :    gfortran
            F77 :    gfortran
         DFLAGS :    -D__GFORTRAN -D__STD_F95 -D__DFTI -D__MPI -D__PARA -D__HDF5
      BLAS LIBS :    -lmkl_gf_lp64  -lmkl_sequential -lmkl_core
    LAPACK LIBS :    
       FFT LIBS :    
      MASS LIBS :    

     Parallel version (MPI), running on     2 processors
     R & G space division:  proc/nbgrp/npool/nimage =       2
     Waiting for input...
     Reading input from standard input

     Current dimensions of program PWSCF are:
     Max number of different atomic species (ntypx) = 10
     Max number of k-points (npk) =  40000
     Max angular momentum in pseudopotentials (lmaxx) =  3

     IMPORTANT: XC functional enforced from input :
     Exchange-correlation      = VDW-DF ( 1  4  4  0 1 0)
     Any further DFT definition will be discarded
     Please, verify this is what you really want

               file O.pbe-rrkjus.UPF: wavefunction(s)  2S renormalized
               file H.pbe-rrkjus.UPF: wavefunction(s)  1S renormalized

     gamma-point specific algorithms are used

     Subspace diagonalization in iterative solution of the eigenvalue problem:
     a serial algorithm will be used

 
     Parallelization info
     --------------------
     sticks:   dense  smooth     PW     G-vecs:    dense   smooth      PW
     Min        1538    1024    257                80629    43873    5485
     Max        1539    1025    258                80634    43904    5486
     Sum        3077    2049    515               161263    87777   10971
     Tot        1539    1025    258
 


     bravais-lattice index     =            8
     lattice parameter (alat)  =      15.0000  a.u.
     unit-cell volume          =    3953.7707 (a.u.)^3
     number of atoms/cell      =            6
     number of atomic types    =            2
     number of electrons       =        16.00
     number of Kohn-Sham states=            8
     kinetic-energy cutoff     =      30.0000  Ry
     charge density cutoff     =     180.0000  Ry
     convergence threshold     =      1.0E-08
     mixing beta               =       0.7000
     number of iterations used =            8  plain     mixing
     Exchange-correlation      = VDW-DF ( 1  4  4  0 1 0)

     celldm(1)=  15.000000  celldm(2)=   0.954545  celldm(3)=   1.227273
     celldm(4)=   0.000000  celldm(5)=   0.000000  celldm(6)=   0.000000

     crystal axes: (cart. coord. in units of alat)
               a(1) = (   1.000000   0.000000   0.000000 )  
               a(2) = (   0.000000   0.954545   0.000000 )  
               a(3) = (   0.000000   0.000000   1.227273 )  

     reciprocal axes: (cart. coord. in units 2 pi/alat)
               b(1) = (  1.000000  0.000000  0.000000 )  
               b(2) = (  0.000000  1.047619  0.000000 )  
               b(3) = (  0.000000  0.000000  0.814815 )  


     PseudoPot. # 1 for O  read from file:
     /home/nvarini/espresso_hdf5/espresso/pseudo/O.pbe-rrkjus.UPF
     MD5 check sum: 390ba29e75625707450f3bd3f0eb6be9
     Pseudo is Ultrasoft, Zval =  6.0
     Generated by new atomic code, or converted to UPF format
     Using radial grid of 1269 points,  4 beta functions with: 
                l(1) =   0
                l(2) =   0
                l(3) =   1
                l(4) =   1
     Q(r) pseudized with 0 coefficients 


     PseudoPot. # 2 for H  read from file:
     /home/nvarini/espresso_hdf5/espresso/pseudo/H.pbe-rrkjus.UPF
     MD5 check sum: 7cc9d459525c9a0585f487a71c3c9563
     Pseudo is Ultrasoft, Zval =  1.0
     Generated by new atomic code, or converted to UPF format
     Using radial grid of 1061 points,  2 beta functions with: 
                l(1) =   0
                l(2) =   0
     Q(r) pseudized with 0 coefficients 


     vdW kernel table read from file vdW_kernel_table
     MD5 check sum: 88c60d17101ec99b63477f765c8de84d

     atomic species   valence    mass     pseudopotential
        O              6.00    15.99940     O ( 1.00)
        H              1.00     1.00794     H ( 1.00)

      2 Sym. Ops. (no inversion) found


                                    s                        frac. trans.

      isym =  1     identity                                     

 cryst.   s( 1) = (     1          0          0      )
                  (     0          1          0      )
                  (     0          0          1      )

 cart.    s( 1) = (  1.0000000  0.0000000  0.0000000 )
                  (  0.0000000  1.0000000  0.0000000 )
                  (  0.0000000  0.0000000  1.0000000 )


      isym =  2     inv. 180 deg rotation - cart. axis [1,0,0]   

 cryst.   s( 2) = (    -1          0          0      )
                  (     0          1          0      )
                  (     0          0          1      )

 cart.    s( 2) = ( -1.0000000  0.0000000  0.0000000 )
                  (  0.0000000  1.0000000  0.0000000 )
                  (  0.0000000  0.0000000  1.0000000 )


     point group C_s (m)    
     there are  2 classes
     the character table:

       E     s    
A'     1.00  1.00
A''    1.00 -1.00

     the symmetry operations in each class and the name of the first element:

     E        1
          identity                                               
     s        2
          inv. 180 deg rotation - cart. axis [1,0,0]             

   Cartesian axes

     site n.     atom                  positions (alat units)
         1           O   tau(   1) = (   0.0000000   0.0016540  -0.0072484  )
         2           H   tau(   2) = (   0.0000000   0.0981485  -0.0826521  )
         3           H   tau(   3) = (   0.0000000   0.0490883   0.1065556  )
         4           O   tau(   4) = (   0.0000000   0.1117595   0.3550478  )
         5           H   tau(   5) = (  -0.0975766   0.0656956   0.4133167  )
         6           H   tau(   6) = (   0.0975766   0.0656956   0.4133167  )

   Crystallographic axes

     site n.     atom                  positions (cryst. coord.)
         1           O   tau(   1) = (  0.0000000  0.0017328 -0.0059061  )
         2           H   tau(   2) = (  0.0000000  0.1028222 -0.0673462  )
         3           H   tau(   3) = (  0.0000000  0.0514258  0.0868231  )
         4           O   tau(   4) = (  0.0000000  0.1170814  0.2892982  )
         5           H   tau(   5) = ( -0.0975766  0.0688240  0.3367766  )
         6           H   tau(   6) = (  0.0975766  0.0688240  0.3367766  )

     number of k points=     1
                       cart. coord. in units 2pi/alat
        k(    1) = (   0.0000000   0.0000000   0.0000000), wk =   2.0000000

                       cryst. coord.
        k(    1) = (   0.0000000   0.0000000   0.0000000), wk =   2.0000000

     Dense  grid:    80632 G-vectors     FFT dimensions: (  72,  64,  80)

     Smooth grid:    43889 G-vectors     FFT dimensions: (  54,  50,  72)

     Largest allocated arrays     est. size (Mb)     dimensions
        Kohn-Sham Wavefunctions         0.33 Mb     (    2743,    8)
        NL pseudopotentials             1.00 Mb     (    2743,   24)
        Each V/rho on FFT grid          2.81 Mb     (  184320)
        Each G-vector array             0.31 Mb     (   40317)
        G-vector shells                 0.12 Mb     (   15565)
     Largest temporary arrays     est. size (Mb)     dimensions
        Auxiliary wavefunctions         0.67 Mb     (    2743,   32)
        Each subspace H/S matrix        0.01 Mb     (      32,   32)
        Each <psi_i|beta_j> matrix      0.00 Mb     (      24,    8)
        Arrays for rho mixing          22.50 Mb     (  184320,    8)

     Initial potential from superposition of free atoms

     starting charge   15.61518, renormalised to   16.00000

     negative rho (up, down):  2.810E-05 0.000E+00


     %%%%%%%%%%%%%%%%%%%%%%%%%%%%%%%%%%%%%%%%%%%%%%%%%%%%%%%%%%%%%%%%%%%%%%%%
     %                                                                      %
     % You are using vdW-DF, which was implemented by the Thonhauser group. %
     % Please cite the following two papers that made this development      %
     % possible and the two reviews that describe the various versions:     %
     %                                                                      %
     %   T. Thonhauser et al., PRL 115, 136402 (2015).                      %
     %   T. Thonhauser et al., PRB 76, 125112 (2007).                       %
     %   K. Berland et al., Rep. Prog. Phys. 78, 066501 (2015).             %
     %   D.C. Langreth et al., J. Phys.: Condens. Matter 21, 084203 (2009). %
     %                                                                      %
     %                                                                      %
     % If you are calculating the stress with vdW-DF, please also cite:     %
     %                                                                      %
     %   R. Sabatini et al., J. Phys.: Condens. Matter 24, 424209 (2012).   %
     %                                                                      %
     %%%%%%%%%%%%%%%%%%%%%%%%%%%%%%%%%%%%%%%%%%%%%%%%%%%%%%%%%%%%%%%%%%%%%%%%


     Carrying out vdW-DF run using the following parameters:
     Nqs    =  20  Npoints =  1024  r_max =  100.000
     q_mesh =  0.00001000  0.04494208  0.09755937  0.15916263
               0.23128650  0.31572767  0.41458969  0.53033537
               0.66584808  0.82450364  1.01025438  1.22772762
               1.48234092  1.78043706  2.12944203  2.53805004
               3.01644009  3.57652955  4.23227104  5.00000000


     -----------------------------------------------
     Non-local corr. energy    =       0.27501048 Ry
     -----------------------------------------------

     Starting wfc are   12 randomized atomic wfcs

     total cpu time spent up to now is        2.1 secs

     per-process dynamical memory:    51.2 Mb

     Self-consistent Calculation

     iteration #  1     ecut=    30.00 Ry     beta=0.70
     Davidson diagonalization with overlap
     ethr =  1.00E-02,  avg # of iterations =  2.0

     negative rho (up, down):  2.470E-05 0.000E+00


     -----------------------------------------------
     Non-local corr. energy    =       0.30233430 Ry
     -----------------------------------------------


     total cpu time spent up to now is        3.0 secs

     total energy              =     -68.61240478 Ry
     Harris-Foulkes estimate   =     -69.74361094 Ry
     estimated scf accuracy    <       1.47087273 Ry

     iteration #  2     ecut=    30.00 Ry     beta=0.70
     Davidson diagonalization with overlap
     ethr =  9.19E-03,  avg # of iterations =  2.0

     negative rho (up, down):  8.267E-05 0.000E+00


     -----------------------------------------------
     Non-local corr. energy    =       0.29919653 Ry
     -----------------------------------------------


     total cpu time spent up to now is        3.9 secs

     total energy              =     -68.82954832 Ry
     Harris-Foulkes estimate   =     -69.34223497 Ry
     estimated scf accuracy    <       0.99583446 Ry

     iteration #  3     ecut=    30.00 Ry     beta=0.70
     Davidson diagonalization with overlap
     ethr =  6.22E-03,  avg # of iterations =  2.0

     negative rho (up, down):  7.176E-04 0.000E+00


     -----------------------------------------------
     Non-local corr. energy    =       0.30435475 Ry
     -----------------------------------------------


     total cpu time spent up to now is        4.8 secs

     total energy              =     -69.04868114 Ry
     Harris-Foulkes estimate   =     -69.06818213 Ry
     estimated scf accuracy    <       0.03426809 Ry

     iteration #  4     ecut=    30.00 Ry     beta=0.70
     Davidson diagonalization with overlap
     ethr =  2.14E-04,  avg # of iterations =  2.0

     negative rho (up, down):  6.251E-04 0.000E+00


     -----------------------------------------------
     Non-local corr. energy    =       0.30390360 Ry
     -----------------------------------------------


     total cpu time spent up to now is        5.7 secs

     total energy              =     -69.05568350 Ry
     Harris-Foulkes estimate   =     -69.05605539 Ry
     estimated scf accuracy    <       0.00064834 Ry

     iteration #  5     ecut=    30.00 Ry     beta=0.70
     Davidson diagonalization with overlap
     ethr =  4.05E-06,  avg # of iterations =  2.0

     negative rho (up, down):  1.772E-03 0.000E+00


     -----------------------------------------------
     Non-local corr. energy    =       0.30409098 Ry
     -----------------------------------------------


     total cpu time spent up to now is        6.6 secs

     total energy              =     -69.05588020 Ry
     Harris-Foulkes estimate   =     -69.05585908 Ry
     estimated scf accuracy    <       0.00003164 Ry

     iteration #  6     ecut=    30.00 Ry     beta=0.70
     Davidson diagonalization with overlap
     ethr =  1.98E-07,  avg # of iterations =  2.0

     negative rho (up, down):  1.876E-03 0.000E+00


     -----------------------------------------------
     Non-local corr. energy    =       0.30407583 Ry
     -----------------------------------------------


     total cpu time spent up to now is        7.5 secs

     total energy              =     -69.05588359 Ry
     Harris-Foulkes estimate   =     -69.05588593 Ry
     estimated scf accuracy    <       0.00000289 Ry

     iteration #  7     ecut=    30.00 Ry     beta=0.70
     Davidson diagonalization with overlap
     ethr =  1.81E-08,  avg # of iterations =  2.0

     negative rho (up, down):  1.892E-03 0.000E+00


     -----------------------------------------------
     Non-local corr. energy    =       0.30407480 Ry
     -----------------------------------------------


     total cpu time spent up to now is        8.4 secs

     total energy              =     -69.05588394 Ry
     Harris-Foulkes estimate   =     -69.05588406 Ry
     estimated scf accuracy    <       0.00000005 Ry

     iteration #  8     ecut=    30.00 Ry     beta=0.70
     Davidson diagonalization with overlap
     ethr =  3.00E-10,  avg # of iterations =  2.0

     negative rho (up, down):  1.891E-03 0.000E+00


     -----------------------------------------------
     Non-local corr. energy    =       0.30407430 Ry
     -----------------------------------------------


     total cpu time spent up to now is        9.2 secs

     End of self-consistent calculation

          k = 0.0000 0.0000 0.0000 (  5486 PWs)   bands (ev):

   -25.6437 -24.2676 -13.5669 -12.2980  -9.7598  -8.3493  -7.6828  -6.4203

     occupation numbers 
     1.0000   1.0000   1.0000   1.0000   1.0000   1.0000   1.0000   1.0000

     highest occupied level (ev):    -6.4203

!    total energy              =     -69.05588393 Ry
     Harris-Foulkes estimate   =     -69.05588395 Ry
     estimated scf accuracy    <          9.5E-09 Ry

     The total energy is the sum of the following terms:

     one-electron contribution =    -122.46824901 Ry
     hartree contribution      =      64.43518158 Ry
     xc contribution           =     -17.37528553 Ry
     ewald contribution        =       6.35246902 Ry

     convergence has been achieved in   8 iterations

     Forces acting on atoms (Ry/au):

     atom    1 type  1   force =     0.00000000    0.00093872   -0.00218269
     atom    2 type  2   force =     0.00000000    0.00012972    0.00069057
     atom    3 type  2   force =     0.00000000   -0.00035207    0.00011430
     atom    4 type  1   force =     0.00000000    0.00087881    0.00123500
     atom    5 type  2   force =     0.00001229   -0.00079759    0.00007141
     atom    6 type  2   force =    -0.00001229   -0.00079759    0.00007141
     The non-local contrib.  to forces
     atom    1 type  1   force =     0.00000000    2.37272402    0.53163080
     atom    2 type  2   force =     0.00000000   -0.15344327    0.12906953
     atom    3 type  2   force =     0.00000000   -0.06954749   -0.18712463
     atom    4 type  1   force =     0.00000000   -1.58418878    1.86393501
     atom    5 type  2   force =     0.16527723    0.07169209   -0.09125263
     atom    6 type  2   force =    -0.16527723    0.07169209   -0.09125263
     The ionic contribution  to forces
     atom    1 type  1   force =    -0.00000000   -4.70114639   -3.35460645
     atom    2 type  2   force =     0.00000000    2.82811785   -2.66092417
     atom    3 type  2   force =    -0.00000000    1.08890119    2.53590618
     atom    4 type  1   force =     0.00000000    3.35642644   -0.50251250
     atom    5 type  2   force =    -3.10291758   -1.28614954    1.99106847
     atom    6 type  2   force =     3.10291758   -1.28614954    1.99106847
     The local contribution  to forces
     atom    1 type  1   force =     0.00000007    2.32983402    2.82104546
     atom    2 type  2   force =     0.00000000   -2.67398067    2.53282021
     atom    3 type  2   force =     0.00000001   -1.01913726   -2.34840819
     atom    4 type  1   force =    -0.00000004   -1.77075691   -1.35991217
     atom    5 type  2   force =     2.93764604    1.21423238   -1.89947091
     atom    6 type  2   force =    -2.93764604    1.21423238   -1.89947091
     The core correction contribution to forces
     atom    1 type  1   force =     0.00000000    0.00000000    0.00000000
     atom    2 type  2   force =     0.00000000    0.00000000    0.00000000
     atom    3 type  2   force =     0.00000000    0.00000000    0.00000000
     atom    4 type  1   force =     0.00000000    0.00000000    0.00000000
     atom    5 type  2   force =     0.00000000    0.00000000    0.00000000
     atom    6 type  2   force =     0.00000000    0.00000000    0.00000000
     The Hubbard contrib.    to forces
     atom    1 type  1   force =     0.00000000    0.00000000    0.00000000
     atom    2 type  2   force =     0.00000000    0.00000000    0.00000000
     atom    3 type  2   force =     0.00000000    0.00000000    0.00000000
     atom    4 type  1   force =     0.00000000    0.00000000    0.00000000
     atom    5 type  2   force =     0.00000000    0.00000000    0.00000000
     atom    6 type  2   force =     0.00000000    0.00000000    0.00000000
     The SCF correction term to forces
     atom    1 type  1   force =    -0.00000011    0.00010235    0.00001717
     atom    2 type  2   force =    -0.00000000    0.00001111   -0.00000532
     atom    3 type  2   force =    -0.00000000    0.00000678    0.00001061
     atom    4 type  1   force =     0.00000004   -0.00002665   -0.00000565
     atom    5 type  2   force =     0.00000660    0.00000278   -0.00000384
     atom    6 type  2   force =    -0.00000660    0.00000278   -0.00000384

     Total force =     0.003139     Total SCF correction =     0.000109


     entering subroutine stress ...

          total   stress  (Ry/bohr**3)                   (kbar)     P=   -1.69
  -0.00001152   0.00000000   0.00000000         -1.69      0.00      0.00
   0.00000000  -0.00001110  -0.00000083          0.00     -1.63     -0.12
   0.00000000  -0.00000083  -0.00001191          0.00     -0.12     -1.75

     kinetic stress (kbar)    773.91      0.00      0.00
                                0.00    795.27     35.09
                                0.00     35.09    748.19

     local   stress (kbar)  -1260.30      0.00      0.00
                                0.00  -1418.76   -162.43
                                0.00   -162.43  -2492.38

     nonloc. stress (kbar)    278.33      0.00      0.00
                                0.00    280.60     11.20
                                0.00     11.20    269.14

     hartree stress (kbar)    584.70     -0.00     -0.00
                               -0.00    685.81    102.02
                               -0.00    102.02   1126.88

     exc-cor stress (kbar)   -207.38      0.00      0.00
                                0.00   -207.95     -1.03
                                0.00     -1.03   -205.76

     corecor stress (kbar)      0.00      0.00      0.00
                                0.00      0.00      0.00
                                0.00      0.00      0.00

     ewald   stress (kbar)   -173.91     -0.00     -0.00
                               -0.00   -139.58     15.06
                               -0.00     15.06    549.84

     hubbard stress (kbar)      0.00      0.00      0.00
                                0.00      0.00      0.00
                                0.00      0.00      0.00

     london  stress (kbar)      0.00      0.00      0.00
                                0.00      0.00      0.00
                                0.00      0.00      0.00

     XDM     stress (kbar)      0.00      0.00      0.00
                                0.00      0.00      0.00
                                0.00      0.00      0.00

     dft-nl  stress (kbar)      2.95     -0.00     -0.00
                               -0.00      2.97     -0.04
                               -0.00     -0.04      2.35

     TS-vdW  stress (kbar)      0.00      0.00      0.00
                                0.00      0.00      0.00
                                0.00      0.00      0.00



     Writing output data file water_vdw.save
 
     init_run     :      1.84s CPU      1.89s WALL (       1 calls)
     electrons    :      6.90s CPU      7.13s WALL (       1 calls)
     forces       :      0.47s CPU      0.47s WALL (       1 calls)
     stress       :      2.25s CPU      2.28s WALL (       1 calls)

     Called by init_run:
     wfcinit      :      0.02s CPU      0.02s WALL (       1 calls)
     potinit      :      1.11s CPU      1.16s WALL (       1 calls)

     Called by electrons:
     c_bands      :      0.36s CPU      0.36s WALL (       8 calls)
     sum_band     :      0.53s CPU      0.53s WALL (       8 calls)
     v_of_rho     :      6.27s CPU      6.53s WALL (       9 calls)
     v_h          :      0.05s CPU      0.05s WALL (       9 calls)
     v_xc         :      6.23s CPU      6.48s WALL (       9 calls)
     newd         :      0.30s CPU      0.31s WALL (       9 calls)
     mix_rho      :      0.09s CPU      0.09s WALL (       8 calls)

     Called by c_bands:
     init_us_2    :      0.02s CPU      0.02s WALL (      17 calls)
     regterg      :      0.33s CPU      0.33s WALL (       8 calls)

     Called by sum_band:
     sum_band:bec :      0.00s CPU      0.00s WALL (       8 calls)
     addusdens    :      0.34s CPU      0.34s WALL (       8 calls)

     Called by *egterg:
     h_psi        :      0.31s CPU      0.31s WALL (      25 calls)
     s_psi        :      0.01s CPU      0.01s WALL (      25 calls)
     g_psi        :      0.00s CPU      0.00s WALL (      16 calls)
     rdiaghg      :      0.01s CPU      0.01s WALL (      24 calls)
     regterg:over :      0.01s CPU      0.01s WALL (      16 calls)
     regterg:upda :      0.01s CPU      0.01s WALL (      16 calls)
     regterg:last :      0.00s CPU      0.00s WALL (       8 calls)

     Called by h_psi:
     h_psi:vloc   :      0.29s CPU      0.29s WALL (      25 calls)
     h_psi:vnl    :      0.01s CPU      0.01s WALL (      25 calls)
     add_vuspsi   :      0.01s CPU      0.01s WALL (      25 calls)

     General routines
     calbec       :      0.01s CPU      0.01s WALL (      38 calls)
     fft          :      2.47s CPU      2.48s WALL (     642 calls)
     ffts         :      0.03s CPU      0.04s WALL (      17 calls)
     fftw         :      0.29s CPU      0.29s WALL (     228 calls)
     interpolate  :      0.12s CPU      0.12s WALL (      17 calls)
 
     Parallel routines
     fft_scatter  :      1.00s CPU      1.00s WALL (     887 calls)
 
     PWSCF        :    11.86s CPU        12.40s WALL

 
   This run was terminated on:  15:47: 8  21Jul2016            

=------------------------------------------------------------------------------=
   JOB DONE.
=------------------------------------------------------------------------------=
