
     Program PWSCF v.5.4.0 (svn rev. 12782M) starts on 18Aug2016 at 16:24:18 

     This program is part of the open-source Quantum ESPRESSO suite
     for quantum simulation of materials; please cite
         "P. Giannozzi et al., J. Phys.:Condens. Matter 21 395502 (2009);
          URL http://www.quantum-espresso.org", 
     in publications or presentations arising from this work. More details at
     http://www.quantum-espresso.org/quote
 
           HOST :    x86_64-pc-linux-gnu
           ARCH :    x86_64
             CC :    icc
            CPP :    cpp
            F90 :    ifort
            F77 :    ifort
         DFLAGS :    -D__INTEL -D__FFTW -D__MPI -D__PARA -D__HDF5
      BLAS LIBS :    -lmkl_intel_lp64  -lmkl_sequential -lmkl_core
    LAPACK LIBS :    
       FFT LIBS :    
      MASS LIBS :    

     Parallel version (MPI), running on     2 processors
     R & G space division:  proc/nbgrp/npool/nimage =       2
     Waiting for input...
     Reading input from standard input

     Current dimensions of program PWSCF are:
     Max number of different atomic species (ntypx) = 10
     Max number of k-points (npk) =  40000
     Max angular momentum in pseudopotentials (lmaxx) =  3

     IMPORTANT: XC functional enforced from input :
     Exchange-correlation      = VDW-DF ( 1  4  4  0 1 0)
     Any further DFT definition will be discarded
     Please, verify this is what you really want

               file O.pbe-rrkjus.UPF: wavefunction(s)  2S renormalized
               file H.pbe-rrkjus.UPF: wavefunction(s)  1S renormalized

     gamma-point specific algorithms are used

     Subspace diagonalization in iterative solution of the eigenvalue problem:
     a serial algorithm will be used

 
     Parallelization info
     --------------------
     sticks:   dense  smooth     PW     G-vecs:    dense   smooth      PW
     Min        1538    1024    257                80630    43888    5485
     Max        1539    1025    258                80633    43889    5486
     Sum        3077    2049    515               161263    87777   10971
 


     bravais-lattice index     =            8
     lattice parameter (alat)  =      15.0500  a.u.
     unit-cell volume          =    3993.4403 (a.u.)^3
     number of atoms/cell      =            6
     number of atomic types    =            2
     number of electrons       =        16.00
     number of Kohn-Sham states=            8
     kinetic-energy cutoff     =      29.8010  Ry
     charge density cutoff     =     178.8060  Ry
     convergence threshold     =      1.0E-08
     mixing beta               =       0.7000
     number of iterations used =            8  plain     mixing
     Exchange-correlation      = VDW-DF ( 1  4  4  0 1 0)

     celldm(1)=  15.050000  celldm(2)=   0.954545  celldm(3)=   1.227273
     celldm(4)=   0.000000  celldm(5)=   0.000000  celldm(6)=   0.000000

     crystal axes: (cart. coord. in units of alat)
               a(1) = (   1.000000   0.000000   0.000000 )  
               a(2) = (   0.000000   0.954545   0.000000 )  
               a(3) = (   0.000000   0.000000   1.227273 )  

     reciprocal axes: (cart. coord. in units 2 pi/alat)
               b(1) = (  1.000000  0.000000  0.000000 )  
               b(2) = (  0.000000  1.047619  0.000000 )  
               b(3) = (  0.000000  0.000000  0.814815 )  


     PseudoPot. # 1 for O  read from file:
     /home/nvarini/espresso_hdf5/espresso/pseudo/O.pbe-rrkjus.UPF
     MD5 check sum: 390ba29e75625707450f3bd3f0eb6be9
     Pseudo is Ultrasoft, Zval =  6.0
     Generated by new atomic code, or converted to UPF format
     Using radial grid of 1269 points,  4 beta functions with: 
                l(1) =   0
                l(2) =   0
                l(3) =   1
                l(4) =   1
     Q(r) pseudized with 0 coefficients 


     PseudoPot. # 2 for H  read from file:
     /home/nvarini/espresso_hdf5/espresso/pseudo/H.pbe-rrkjus.UPF
     MD5 check sum: 7cc9d459525c9a0585f487a71c3c9563
     Pseudo is Ultrasoft, Zval =  1.0
     Generated by new atomic code, or converted to UPF format
     Using radial grid of 1061 points,  2 beta functions with: 
                l(1) =   0
                l(2) =   0
     Q(r) pseudized with 0 coefficients 


     vdW kernel table read from file vdW_kernel_table
     MD5 check sum: 88c60d17101ec99b63477f765c8de84d

     atomic species   valence    mass     pseudopotential
        O              6.00    15.99940     O ( 1.00)
        H              1.00     1.00794     H ( 1.00)

      2 Sym. Ops. (no inversion) found


                                    s                        frac. trans.

      isym =  1     identity                                     

 cryst.   s( 1) = (     1          0          0      )
                  (     0          1          0      )
                  (     0          0          1      )

 cart.    s( 1) = (  1.0000000  0.0000000  0.0000000 )
                  (  0.0000000  1.0000000  0.0000000 )
                  (  0.0000000  0.0000000  1.0000000 )


      isym =  2     inv. 180 deg rotation - cart. axis [1,0,0]   

 cryst.   s( 2) = (    -1          0          0      )
                  (     0          1          0      )
                  (     0          0          1      )

 cart.    s( 2) = ( -1.0000000  0.0000000  0.0000000 )
                  (  0.0000000  1.0000000  0.0000000 )
                  (  0.0000000  0.0000000  1.0000000 )


     point group C_s (m)    
     there are  2 classes
     the character table:

       E     s    
A'     1.00  1.00
A''    1.00 -1.00

     the symmetry operations in each class and the name of the first element:

     E        1
          identity                                               
     s        2
          inv. 180 deg rotation - cart. axis [1,0,0]             

   Cartesian axes

     site n.     atom                  positions (alat units)
         1           O   tau(   1) = (   0.0000000   0.0016540  -0.0072484  )
         2           H   tau(   2) = (   0.0000000   0.0981485  -0.0826521  )
         3           H   tau(   3) = (   0.0000000   0.0490883   0.1065556  )
         4           O   tau(   4) = (   0.0000000   0.1117595   0.3550478  )
         5           H   tau(   5) = (  -0.0975766   0.0656956   0.4133167  )
         6           H   tau(   6) = (   0.0975766   0.0656956   0.4133167  )

   Crystallographic axes

     site n.     atom                  positions (cryst. coord.)
         1           O   tau(   1) = (  0.0000000  0.0017328 -0.0059061  )
         2           H   tau(   2) = (  0.0000000  0.1028222 -0.0673462  )
         3           H   tau(   3) = (  0.0000000  0.0514258  0.0868231  )
         4           O   tau(   4) = (  0.0000000  0.1170814  0.2892982  )
         5           H   tau(   5) = ( -0.0975766  0.0688240  0.3367766  )
         6           H   tau(   6) = (  0.0975766  0.0688240  0.3367766  )

     number of k points=     1
                       cart. coord. in units 2pi/alat
        k(    1) = (   0.0000000   0.0000000   0.0000000), wk =   2.0000000

                       cryst. coord.
        k(    1) = (   0.0000000   0.0000000   0.0000000), wk =   2.0000000

     Dense  grid:    80632 G-vectors     FFT dimensions: (  72,  64,  80)

     Smooth grid:    43889 G-vectors     FFT dimensions: (  54,  50,  72)

     Estimated max dynamical RAM per process >      33.31Mb

     Estimated total allocated dynamical RAM >      66.63Mb

     Initial potential from superposition of free atoms

     starting charge   15.61518, renormalised to   16.00000

     negative rho (up, down):  3.136E-05 0.000E+00


     %%%%%%%%%%%%%%%%%%%%%%%%%%%%%%%%%%%%%%%%%%%%%%%%%%%%%%%%%%%%%%%%%%%%%%%%
     %                                                                      %
     % You are using vdW-DF, which was implemented by the Thonhauser group. %
     % Please cite the following two papers that made this development      %
     % possible and the two reviews that describe the various versions:     %
     %                                                                      %
     %   T. Thonhauser et al., PRL 115, 136402 (2015).                      %
     %   T. Thonhauser et al., PRB 76, 125112 (2007).                       %
     %   K. Berland et al., Rep. Prog. Phys. 78, 066501 (2015).             %
     %   D.C. Langreth et al., J. Phys.: Condens. Matter 21, 084203 (2009). %
     %                                                                      %
     %                                                                      %
     % If you are calculating the stress with vdW-DF, please also cite:     %
     %                                                                      %
     %   R. Sabatini et al., J. Phys.: Condens. Matter 24, 424209 (2012).   %
     %                                                                      %
     %%%%%%%%%%%%%%%%%%%%%%%%%%%%%%%%%%%%%%%%%%%%%%%%%%%%%%%%%%%%%%%%%%%%%%%%


     Carrying out vdW-DF run using the following parameters:
     Nqs    =  20  Npoints =  1024  r_max =  100.000
     q_mesh =  0.00001000  0.04494208  0.09755937  0.15916263
               0.23128650  0.31572767  0.41458969  0.53033537
               0.66584808  0.82450364  1.01025438  1.22772762
               1.48234092  1.78043706  2.12944203  2.53805004
               3.01644009  3.57652955  4.23227104  5.00000000


     -----------------------------------------------
     Non-local corr. energy    =       0.27513717 Ry
     -----------------------------------------------

     Starting wfc are   12 randomized atomic wfcs

     total cpu time spent up to now is        2.1 secs

     per-process dynamical memory:    51.8 Mb

     Self-consistent Calculation

     iteration #  1     ecut=    29.80 Ry     beta=0.70
     Davidson diagonalization with overlap
     ethr =  1.00E-02,  avg # of iterations =  2.0

     negative rho (up, down):  2.896E-05 0.000E+00


     -----------------------------------------------
     Non-local corr. energy    =       0.30233024 Ry
     -----------------------------------------------


     total cpu time spent up to now is        3.0 secs

     total energy              =     -68.61526447 Ry
     Harris-Foulkes estimate   =     -69.73728696 Ry
     estimated scf accuracy    <       1.45902969 Ry

     iteration #  2     ecut=    29.80 Ry     beta=0.70
     Davidson diagonalization with overlap
     ethr =  9.12E-03,  avg # of iterations =  2.0

     negative rho (up, down):  9.646E-05 0.000E+00


     -----------------------------------------------
     Non-local corr. energy    =       0.29923258 Ry
     -----------------------------------------------


     total cpu time spent up to now is        3.8 secs

     total energy              =     -68.82907528 Ry
     Harris-Foulkes estimate   =     -69.34108463 Ry
     estimated scf accuracy    <       0.99703925 Ry

     iteration #  3     ecut=    29.80 Ry     beta=0.70
     Davidson diagonalization with overlap
     ethr =  6.23E-03,  avg # of iterations =  2.0

     negative rho (up, down):  8.578E-04 0.000E+00


     -----------------------------------------------
     Non-local corr. energy    =       0.30435507 Ry
     -----------------------------------------------


     total cpu time spent up to now is        4.7 secs

     total energy              =     -69.04816782 Ry
     Harris-Foulkes estimate   =     -69.06748958 Ry
     estimated scf accuracy    <       0.03417551 Ry

     iteration #  4     ecut=    29.80 Ry     beta=0.70
     Davidson diagonalization with overlap
     ethr =  2.14E-04,  avg # of iterations =  2.0

     negative rho (up, down):  7.679E-04 0.000E+00


     -----------------------------------------------
     Non-local corr. energy    =       0.30391017 Ry
     -----------------------------------------------


     total cpu time spent up to now is        5.6 secs

     total energy              =     -69.05513908 Ry
     Harris-Foulkes estimate   =     -69.05549970 Ry
     estimated scf accuracy    <       0.00063395 Ry

     iteration #  5     ecut=    29.80 Ry     beta=0.70
     Davidson diagonalization with overlap
     ethr =  3.96E-06,  avg # of iterations =  2.0

     negative rho (up, down):  1.992E-03 0.000E+00


     -----------------------------------------------
     Non-local corr. energy    =       0.30409399 Ry
     -----------------------------------------------


     total cpu time spent up to now is        6.4 secs

     total energy              =     -69.05532975 Ry
     Harris-Foulkes estimate   =     -69.05531169 Ry
     estimated scf accuracy    <       0.00003168 Ry

     iteration #  6     ecut=    29.80 Ry     beta=0.70
     Davidson diagonalization with overlap
     ethr =  1.98E-07,  avg # of iterations =  2.0

     negative rho (up, down):  2.109E-03 0.000E+00


     -----------------------------------------------
     Non-local corr. energy    =       0.30408227 Ry
     -----------------------------------------------


     total cpu time spent up to now is        7.3 secs

     total energy              =     -69.05533322 Ry
     Harris-Foulkes estimate   =     -69.05533542 Ry
     estimated scf accuracy    <       0.00000304 Ry

     iteration #  7     ecut=    29.80 Ry     beta=0.70
     Davidson diagonalization with overlap
     ethr =  1.90E-08,  avg # of iterations =  2.0

     negative rho (up, down):  2.123E-03 0.000E+00


     -----------------------------------------------
     Non-local corr. energy    =       0.30407820 Ry
     -----------------------------------------------


     total cpu time spent up to now is        8.1 secs

     total energy              =     -69.05533342 Ry
     Harris-Foulkes estimate   =     -69.05533369 Ry
     estimated scf accuracy    <       0.00000021 Ry

     iteration #  8     ecut=    29.80 Ry     beta=0.70
     Davidson diagonalization with overlap
     ethr =  1.29E-09,  avg # of iterations =  2.0

     negative rho (up, down):  2.130E-03 0.000E+00


     -----------------------------------------------
     Non-local corr. energy    =       0.30407890 Ry
     -----------------------------------------------


     total cpu time spent up to now is        9.0 secs

     total energy              =     -69.05533342 Ry
     Harris-Foulkes estimate   =     -69.05533349 Ry
     estimated scf accuracy    <       0.00000005 Ry

     iteration #  9     ecut=    29.80 Ry     beta=0.70
     Davidson diagonalization with overlap
     ethr =  3.34E-10,  avg # of iterations =  2.0

     negative rho (up, down):  2.127E-03 0.000E+00


     -----------------------------------------------
     Non-local corr. energy    =       0.30407831 Ry
     -----------------------------------------------


     total cpu time spent up to now is        9.9 secs

     End of self-consistent calculation

          k = 0.0000 0.0000 0.0000 (  5486 PWs)   bands (ev):

   -25.6098 -24.2396 -13.5381 -12.2734  -9.7556  -8.3512  -7.6790  -6.4198

     occupation numbers 
     1.0000   1.0000   1.0000   1.0000   1.0000   1.0000   1.0000   1.0000

     highest occupied level (ev):    -6.4198

!    total energy              =     -69.05533343 Ry
     Harris-Foulkes estimate   =     -69.05533343 Ry
     estimated scf accuracy    <          9.9E-10 Ry

     The total energy is the sum of the following terms:

     one-electron contribution =    -122.45145923 Ry
     hartree contribution      =      64.42738459 Ry
     xc contribution           =     -17.36262327 Ry
     ewald contribution        =       6.33136447 Ry

     convergence has been achieved in   9 iterations

     Forces acting on atoms (Ry/au):

     atom    1 type  1   force =     0.00000000    0.00755189   -0.00047139
     atom    2 type  2   force =     0.00000000   -0.00450202    0.00484578
     atom    3 type  2   force =     0.00000000   -0.00225739   -0.00544429
     atom    4 type  1   force =     0.00000000   -0.00335756    0.00632611
     atom    5 type  2   force =     0.00519932    0.00128254   -0.00262810
     atom    6 type  2   force =    -0.00519932    0.00128254   -0.00262810
     The non-local contrib.  to forces
     atom    1 type  1   force =     0.00000000    2.37276246    0.53281149
     atom    2 type  2   force =     0.00000000   -0.15183590    0.12780663
     atom    3 type  2   force =     0.00000000   -0.06876703   -0.18521814
     atom    4 type  1   force =     0.00000000   -1.58393862    1.86345861
     atom    5 type  2   force =     0.16362904    0.07092520   -0.09028130
     atom    6 type  2   force =    -0.16362904    0.07092520   -0.09028130
     The ionic contribution  to forces
     atom    1 type  1   force =    -0.00000000   -4.66996142   -3.33235373
     atom    2 type  2   force =    -0.00000000    2.80935758   -2.64327298
     atom    3 type  2   force =     0.00000000    1.08167798    2.51908430
     atom    4 type  1   force =     0.00000000    3.33416165   -0.49917909
     atom    5 type  2   force =    -3.08233443   -1.27761789    1.97786075
     atom    6 type  2   force =     3.08233443   -1.27761789    1.97786075
     The local contribution  to forces
     atom    1 type  1   force =     0.00000005    2.30529681    2.79933968
     atom    2 type  2   force =     0.00000000   -2.66142608    2.52057923
     atom    3 type  2   force =     0.00000000   -1.01457171   -2.33904005
     atom    4 type  1   force =    -0.00000015   -1.75295487   -1.35770194
     atom    5 type  2   force =     2.92390396    1.20857257   -1.88993956
     atom    6 type  2   force =    -2.92390394    1.20857257   -1.88993955
     The core correction contribution to forces
     atom    1 type  1   force =     0.00000000    0.00000000    0.00000000
     atom    2 type  2   force =     0.00000000    0.00000000    0.00000000
     atom    3 type  2   force =     0.00000000    0.00000000    0.00000000
     atom    4 type  1   force =     0.00000000    0.00000000    0.00000000
     atom    5 type  2   force =     0.00000000    0.00000000    0.00000000
     atom    6 type  2   force =     0.00000000    0.00000000    0.00000000
     The Hubbard contrib.    to forces
     atom    1 type  1   force =     0.00000000    0.00000000    0.00000000
     atom    2 type  2   force =     0.00000000    0.00000000    0.00000000
     atom    3 type  2   force =     0.00000000    0.00000000    0.00000000
     atom    4 type  1   force =     0.00000000    0.00000000    0.00000000
     atom    5 type  2   force =     0.00000000    0.00000000    0.00000000
     atom    6 type  2   force =     0.00000000    0.00000000    0.00000000
     The SCF correction term to forces
     atom    1 type  1   force =    -0.00000005    0.00005115   -0.00000059
     atom    2 type  2   force =    -0.00000000   -0.00000052    0.00000114
     atom    3 type  2   force =    -0.00000000    0.00000047   -0.00000217
     atom    4 type  1   force =     0.00000012   -0.00002860    0.00001677
     atom    5 type  2   force =     0.00000076   -0.00000022    0.00000024
     atom    6 type  2   force =    -0.00000076   -0.00000022    0.00000024

     Total force =     0.016069     Total SCF correction =     0.000061


     entering subroutine stress ...

          total   stress  (Ry/bohr**3)                   (kbar)     P=   -2.38
  -0.00001615   0.00000000   0.00000000         -2.38      0.00      0.00
   0.00000000  -0.00001467   0.00000048          0.00     -2.16      0.07
   0.00000000   0.00000048  -0.00001780          0.00      0.07     -2.62

     kinetic stress (kbar)    765.67      0.00      0.00
                                0.00    786.75     34.78
                                0.00     34.78    740.09

     local   stress (kbar)  -1248.87      0.00     -0.00
                                0.00  -1405.00   -160.27
                               -0.00   -160.27  -2465.24

     nonloc. stress (kbar)    275.37      0.00      0.00
                                0.00    277.59     11.07
                                0.00     11.07    266.27

     hartree stress (kbar)    579.31     -0.00      0.00
                               -0.00    679.03    100.68
                                0.00    100.68   1114.94

     exc-cor stress (kbar)   -205.17     -0.00      0.00
                               -0.00   -205.74     -1.02
                                0.00     -1.02   -203.58

     corecor stress (kbar)      0.00      0.00      0.00
                                0.00      0.00      0.00
                                0.00      0.00      0.00

     ewald   stress (kbar)   -171.61     -0.00      0.00
                               -0.00   -137.73     14.86
                                0.00     14.86    542.57

     hubbard stress (kbar)      0.00      0.00      0.00
                                0.00      0.00      0.00
                                0.00      0.00      0.00

     london  stress (kbar)      0.00      0.00      0.00
                                0.00      0.00      0.00
                                0.00      0.00      0.00

     XDM     stress (kbar)      0.00      0.00      0.00
                                0.00      0.00      0.00
                                0.00      0.00      0.00

     dft-nl  stress (kbar)      2.92      0.00     -0.00
                                0.00      2.94     -0.04
                               -0.00     -0.04      2.33

     TS-vdW  stress (kbar)      0.00      0.00      0.00
                                0.00      0.00      0.00
                                0.00      0.00      0.00



     Writing output data file water_vdw.save
 
     init_run     :      1.82s CPU      1.86s WALL (       1 calls)
     electrons    :      7.52s CPU      7.78s WALL (       1 calls)
     forces       :      0.45s CPU      0.46s WALL (       1 calls)
     stress       :      2.19s CPU      2.22s WALL (       1 calls)

     Called by init_run:
     wfcinit      :      0.02s CPU      0.02s WALL (       1 calls)
     potinit      :      1.09s CPU      1.13s WALL (       1 calls)

     Called by electrons:
     c_bands      :      0.39s CPU      0.39s WALL (       9 calls)
     sum_band     :      0.58s CPU      0.59s WALL (       9 calls)
     v_of_rho     :      6.75s CPU      7.02s WALL (      10 calls)
     v_h          :      0.05s CPU      0.05s WALL (      10 calls)
     v_xc         :      6.70s CPU      6.97s WALL (      10 calls)
     newd         :      0.33s CPU      0.34s WALL (      10 calls)
     mix_rho      :      0.11s CPU      0.11s WALL (       9 calls)

     Called by c_bands:
     init_us_2    :      0.02s CPU      0.02s WALL (      19 calls)
     regterg      :      0.36s CPU      0.36s WALL (       9 calls)

     Called by sum_band:
     sum_band:bec :      0.00s CPU      0.00s WALL (       9 calls)
     addusdens    :      0.37s CPU      0.38s WALL (       9 calls)

     Called by *egterg:
     h_psi        :      0.33s CPU      0.33s WALL (      28 calls)
     s_psi        :      0.01s CPU      0.01s WALL (      28 calls)
     g_psi        :      0.00s CPU      0.00s WALL (      18 calls)
     rdiaghg      :      0.01s CPU      0.01s WALL (      27 calls)
     regterg:over :      0.01s CPU      0.01s WALL (      18 calls)
     regterg:upda :      0.01s CPU      0.01s WALL (      18 calls)
     regterg:last :      0.00s CPU      0.00s WALL (       9 calls)

     Called by h_psi:
     h_psi:pot    :      0.33s CPU      0.33s WALL (      28 calls)
     h_psi:calbec :      0.01s CPU      0.01s WALL (      28 calls)
     add_vuspsi   :      0.01s CPU      0.01s WALL (      28 calls)

     General routines
     calbec       :      0.01s CPU      0.01s WALL (      42 calls)
     fft          :      2.66s CPU      2.67s WALL (     708 calls)
     ffts         :      0.04s CPU      0.04s WALL (      19 calls)
     fftw         :      0.31s CPU      0.31s WALL (     250 calls)
     interpolate  :      0.12s CPU      0.13s WALL (      19 calls)
 
     Parallel routines
     fft_scatter  :      1.04s CPU      1.04s WALL (     977 calls)
 
     PWSCF        :    12.46s CPU        12.97s WALL

 
   This run was terminated on:  16:24:31  18Aug2016            

=------------------------------------------------------------------------------=
   JOB DONE.
=------------------------------------------------------------------------------=
