
     Program PHONON v.5.4.0 (svn rev. 12620M) starts on 28Jul2016 at 11:12: 0 

     This program is part of the open-source Quantum ESPRESSO suite
     for quantum simulation of materials; please cite
         "P. Giannozzi et al., J. Phys.:Condens. Matter 21 395502 (2009);
          URL http://www.quantum-espresso.org", 
     in publications or presentations arising from this work. More details at
     http://www.quantum-espresso.org/quote
 
           HOST :    x86_64-pc-linux-gnu
           ARCH :    x86_64
             CC :    icc
            CPP :    cpp
            F90 :    ifort
            F77 :    ifort
         DFLAGS :    -D__INTEL -D__FFTW -D__MPI -D__PARA -D__HDF5
      BLAS LIBS :    -lmkl_intel_lp64  -lmkl_sequential -lmkl_core
    LAPACK LIBS :    
       FFT LIBS :    
      MASS LIBS :    

     Parallel version (MPI), running on     2 processors
     R & G space division:  proc/nbgrp/npool/nimage =       2

     Reading data from directory:
     /home/nvarini/espresso_hdf5/espresso/tempdir/alas.save

   Info: using nr1, nr2, nr3 values from input

   Info: using nr1, nr2, nr3 values from input

     IMPORTANT: XC functional enforced from input :
     Exchange-correlation      =  SLA  PZ   NOGX NOGC ( 1  1  0  0 0 0)
     Any further DFT definition will be discarded
     Please, verify this is what you really want

 
     Parallelization info
     --------------------
     sticks:   dense  smooth     PW     G-vecs:    dense   smooth      PW
     Min          75      75     30                  620      620     153
     Max          76      76     31                  623      623     154
     Sum         151     151     61                 1243     1243     307
 
        1 /   1 q-points for this run, from  1 to  1:
       N       xq(1)         xq(2)         xq(3) 
       1   0.000000000   0.000000000   0.000000000
 

     Calculation of q =    0.0000000   0.0000000   0.0000000

     Restart after Phonon calculation

                                                                                

     bravais-lattice index     =            2
     lattice parameter (alat)  =      10.5750  a.u.
     unit-cell volume          =     295.6522 (a.u.)^3
     number of atoms/cell      =            2
     number of atomic types    =            2
     kinetic-energy cut-off    =      10.0000  Ry
     charge density cut-off    =      40.0000  Ry
     convergence threshold     =      1.0E-12
     beta                      =       0.7000
     number of iterations used =            4
     Exchange-correlation      =  SLA  PZ   NOGX NOGC ( 1  1  0  0 0 0)


     celldm(1)=   10.57500  celldm(2)=    0.00000  celldm(3)=    0.00000
     celldm(4)=    0.00000  celldm(5)=    0.00000  celldm(6)=    0.00000

     crystal axes: (cart. coord. in units of alat)
               a(1) = ( -0.5000  0.0000  0.5000 )  
               a(2) = (  0.0000  0.5000  0.5000 )  
               a(3) = ( -0.5000  0.5000  0.0000 )  

     reciprocal axes: (cart. coord. in units 2 pi/alat)
               b(1) = ( -1.0000 -1.0000  1.0000 )  
               b(2) = (  1.0000  1.0000  1.0000 )  
               b(3) = ( -1.0000  1.0000 -1.0000 )  


     Atoms inside the unit cell: 

     Cartesian axes

     site n.  atom      mass           positions (alat units)
        1     Al  26.9800   tau(    1) = (    0.00000    0.00000    0.00000  )
        2     As  74.9200   tau(    2) = (    0.25000    0.25000    0.25000  )

     Computing dynamical matrix for 
                    q = (   0.0000000   0.0000000   0.0000000 )
 
     25 Sym.Ops. (with q -> -q+G )


     G cutoff =  113.3081  (    623 G-vectors)     FFT grid: ( 15, 15, 15)
     number of k points=    10
                       cart. coord. in units 2pi/alat
        k(    1) = (  -0.1250000   0.1250000   0.1250000), wk =   0.0625000
        k(    2) = (  -0.3750000   0.3750000  -0.1250000), wk =   0.1875000
        k(    3) = (   0.3750000  -0.3750000   0.6250000), wk =   0.1875000
        k(    4) = (   0.1250000  -0.1250000   0.3750000), wk =   0.1875000
        k(    5) = (  -0.1250000   0.6250000   0.1250000), wk =   0.1875000
        k(    6) = (   0.6250000  -0.1250000   0.8750000), wk =   0.3750000
        k(    7) = (   0.3750000   0.1250000   0.6250000), wk =   0.3750000
        k(    8) = (  -0.1250000  -0.8750000   0.1250000), wk =   0.1875000
        k(    9) = (  -0.3750000   0.3750000   0.3750000), wk =   0.0625000
        k(   10) = (   0.3750000  -0.3750000   1.1250000), wk =   0.1875000

     PseudoPot. # 1 for Al read from file:
     /home/nvarini/espresso_hdf5/espresso/pseudo/Al.pz-vbc.UPF
     MD5 check sum: 614279c88ff8d45c90147292d03ed420
     Pseudo is Norm-conserving, Zval =  3.0
     Generated by new atomic code, or converted to UPF format
     Using radial grid of  171 points,  2 beta functions with: 
                l(1) =   0
                l(2) =   1

     PseudoPot. # 2 for As read from file:
     /home/nvarini/espresso_hdf5/espresso/pseudo/As.pz-bhs.UPF
     MD5 check sum: 451cd3365afcfc94d28b1934951c34a8
     Pseudo is Norm-conserving, Zval =  5.0
     Generated by new atomic code, or converted to UPF format
     Using radial grid of  525 points,  2 beta functions with: 
                l(1) =   0
                l(2) =   1

     Mode symmetry, T_d (-43m)  point group:


     Electric field:
     Dielectric constant
     Born effective charges in two ways 
     Raman tensor
     Electro-optic tensor


     Atomic displacements:
     There are   2 irreducible representations

     Representation     1      3 modes -T_2  G_15 P_4  Done

     Representation     2      3 modes -T_2  G_15 P_4  Done


     PHONON       :     0.36s CPU         0.37s WALL


          Dielectric constant in cartesian axis 

          (       8.811373543       0.000000000      -0.000000000 )
          (       0.000000000       8.811373543       0.000000000 )
          (      -0.000000000       0.000000000       8.811373543 )

          Effective charges (d Force / dE) in cartesian axis

           atom      1   Al 
      Ex  (        2.14172        0.00000       -0.00000 )
      Ey  (        0.00000        2.14172        0.00000 )
      Ez  (        0.00000        0.00000        2.14172 )
           atom      2   As 
      Ex  (       -2.14329       -0.00000        0.00000 )
      Ey  (       -0.00000       -2.14329       -0.00000 )
      Ez  (       -0.00000       -0.00000       -2.14329 )

              Electro-optic tensor is defined as 
            the derivative of the dielectric tensor 
              with respect to one electric field 
                 units are Rydberg a.u. 

            to obtain the static chi^2 multiply by 1/2  

            to convert to pm/Volt multiply per 2.7502  


          Electro-optic tensor in cartesian axis: 

          (               NaN               NaN               NaN )
          (               NaN               NaN               NaN )
          (               NaN               NaN               NaN )

          (               NaN               NaN               NaN )
          (               NaN               NaN               NaN )
          (               NaN               NaN               NaN )

          (               NaN               NaN               NaN )
          (               NaN               NaN               NaN )
          (               NaN               NaN               NaN )


     Raman tensor (A^2)

     atom #    1    pol.  1
      0.700971497076E-15      0.112764979964E-14      0.335247237732E-15
      0.944787669972E-15      0.106669575642E-14     -0.517199722901E+01
      0.518109367404E-15     -0.517199722901E+01      0.106669575642E-14
     atom #    1    pol.  2
      0.304770216120E-16     -0.396201280956E-15     -0.517199722901E+01
      0.152385108060E-15     -0.335247237732E-15      0.335247237732E-15
     -0.517199722901E+01      0.335247237732E-15     -0.335247237732E-15
     atom #    1    pol.  3
     -0.304770216120E-16     -0.517199722901E+01     -0.396201280956E-15
     -0.517199722901E+01      0.106669575642E-14     -0.335247237732E-15
     -0.213339151284E-15     -0.335247237732E-15      0.335247237732E-15
     atom #    2    pol.  1
      0.238482694114E-14      0.236958843033E-14      0.190481385075E-15
      0.218672630066E-14      0.128765416311E-14      0.522759762000E+01
      0.147051629278E-14      0.522759762000E+01     -0.200386417099E-14
     atom #    2    pol.  2
     -0.556205644419E-15      0.190481385075E-15      0.522759762000E+01
      0.761925540300E-17     -0.190481385075E-15     -0.906691392957E-15
      0.522759762000E+01      0.556205644419E-15     -0.190481385075E-15
     atom #    2    pol.  3
      0.190481385075E-15      0.522759762000E+01      0.921929903763E-15
      0.522759762000E+01      0.556205644419E-15      0.906691392957E-15
      0.761925540300E-17     -0.556205644419E-15     -0.540967133613E-15
 
     Number of q in the star =    1
     List of q in the star:
          1   0.000000000   0.000000000   0.000000000

          Dielectric constant in cartesian axis 

          (       8.811373543       0.000000000      -0.000000000 )
          (       0.000000000       8.811373543       0.000000000 )
          (      -0.000000000       0.000000000       8.811373543 )

          Effective charges (d Force / dE) in cartesian axis

           atom      1   Al 
      Ex  (        2.14172        0.00000       -0.00000 )
      Ey  (        0.00000        2.14172        0.00000 )
      Ez  (        0.00000        0.00000        2.14172 )
           atom      2   As 
      Ex  (       -2.14329       -0.00000        0.00000 )
      Ey  (       -0.00000       -2.14329       -0.00000 )
      Ez  (       -0.00000       -0.00000       -2.14329 )

          Effective charges (d P / du) in cartesian axis 

           atom      1   Al 
      Px  (        2.14186       -0.00000       -0.00000 )
      Py  (       -0.00000        2.14186        0.00000 )
      Pz  (       -0.00000       -0.00000        2.14186 )
           atom      2   As 
      Px  (       -2.14349       -0.00000        0.00000 )
      Py  (       -0.00000       -2.14349        0.00000 )
      Pz  (        0.00000       -0.00000       -2.14349 )

     Diagonalizing the dynamical matrix

     q = (    0.000000000   0.000000000   0.000000000 ) 

 **************************************************************************
     freq (    1) =      -0.155802 [THz] =      -5.196998 [cm-1]
     freq (    2) =      -0.155802 [THz] =      -5.196998 [cm-1]
     freq (    3) =      -0.155802 [THz] =      -5.196998 [cm-1]
     freq (    4) =      10.583129 [THz] =     353.015186 [cm-1]
     freq (    5) =      10.583129 [THz] =     353.015186 [cm-1]
     freq (    6) =      10.583129 [THz] =     353.015186 [cm-1]
 **************************************************************************

     Mode symmetry, T_d (-43m)  point group:

     freq (  1 -  3) =         -5.2  [cm-1]   --> T_2  G_15 P_4   I+R
     freq (  4 -  6) =        353.0  [cm-1]   --> T_2  G_15 P_4   I+R
 
     PHONON       :     0.36s CPU         0.37s WALL

     INITIALIZATION: 
     phq_setup    :      0.01s CPU      0.01s WALL (       1 calls)
 
     init_vloc    :      0.00s CPU      0.00s WALL (       1 calls)
     init_us_1    :      0.01s CPU      0.01s WALL (       1 calls)
 
     DIELECTRIC CONSTANT AND EFFECTIVE CHARGES:
 
     RAMAN COEFFICIENTS, THIRD-ORDER CHI:
 
     DYNAMICAL MATRIX:
     phqscf       :      0.00s CPU      0.00s WALL (       1 calls)
     dynmatrix    :      0.00s CPU      0.00s WALL (       1 calls)
 
     phqscf       :      0.00s CPU      0.00s WALL (       1 calls)
 
 
 
     phqscf       :      0.00s CPU      0.00s WALL (       1 calls)
 
 
 
 
 
 
 
 
      General routines
     fft          :      0.00s CPU      0.00s WALL (       3 calls)
 
 
     PHONON       :     0.36s CPU         0.37s WALL

 
   This run was terminated on:  11:12: 0  28Jul2016            

=------------------------------------------------------------------------------=
   JOB DONE.
=------------------------------------------------------------------------------=
