[Molden Format]
[FREQ]
    0.00
    0.00
    0.00
    0.00
    0.00
    0.00
  740.93
  740.93
  903.94
  903.94
  903.94
 2519.34
 2519.34
 2519.34
 2750.96
[FR-COORD]
   Si          0.00000        0.00000        0.00000
   H           1.54237        1.54237        1.54237
   H          -1.54237       -1.54237        1.54237
   H          -1.54237        1.54237       -1.54237
   H           1.54237       -1.54237       -1.54237
[FR-NORM-COORD]
 vibration     1
  -0.00281   0.00294  -0.04692
   0.19657  -0.22977  -0.01359
   0.25863  -0.29183  -0.08025
  -0.26426   0.23565   0.44724
  -0.20220   0.29771  -0.54107
 vibration     2
  -0.12754  -0.00893   0.02957
  -0.47154  -0.11914   0.48378
  -0.26439  -0.32630  -0.42464
   0.00931   0.10128   0.00293
   0.21646   0.30843   0.05621
 vibration     3
  -0.04614  -0.31664  -0.18556
  -0.19543  -0.03592  -0.31699
   0.09761  -0.32896  -0.05413
  -0.18989  -0.59736  -0.32253
   0.10315  -0.30432  -0.04859
 vibration     4
   0.08476  -0.12156   0.22780
  -0.06683   0.08537   0.17247
   0.44516  -0.42662   0.28314
  -0.27564  -0.32848   0.38128
   0.23634   0.18350   0.07433
 vibration     5
  -0.08001   0.07012  -0.01639
  -0.22926   0.50654  -0.30357
   0.32183  -0.04455   0.27078
  -0.48185  -0.36631  -0.05097
   0.06924   0.18479   0.01819
 vibration     6
  -0.15340  -0.04703   0.08397
   0.28487  -0.21004  -0.19129
  -0.20811   0.28293   0.35923
  -0.09869   0.11598   0.19227
  -0.59167  -0.37700  -0.02433
 vibration     7
   0.00000   0.00000   0.00000
  -0.09839   0.39233  -0.29394
   0.09839  -0.39233  -0.29394
   0.09839   0.39233   0.29394
  -0.09839  -0.39233   0.29394
 vibration     8
  -0.00000  -0.00000   0.00000
   0.39621  -0.11290  -0.28332
  -0.39621   0.11290  -0.28332
  -0.39621  -0.11290   0.28332
   0.39621   0.11290   0.28332
 vibration     9
   0.00000   0.05544   0.00000
   0.22372  -0.38618   0.22372
   0.22372  -0.38618  -0.22372
  -0.22372  -0.38618  -0.22372
  -0.22372  -0.38618   0.22372
 vibration    10
  -0.00000   0.00000  -0.05544
  -0.22372  -0.22372   0.38618
   0.22372   0.22372   0.38618
  -0.22372   0.22372   0.38618
   0.22372  -0.22372   0.38618
 vibration    11
  -0.05544   0.00000   0.00000
   0.38618  -0.22372  -0.22372
   0.38618  -0.22372   0.22372
   0.38618   0.22372  -0.22372
   0.38618   0.22372   0.22372
 vibration    12
   0.00000  -0.04177   0.00000
   0.28716   0.29094   0.28716
   0.28716   0.29094  -0.28716
  -0.28716   0.29094  -0.28716
  -0.28716   0.29094   0.28716
 vibration    13
   0.04177   0.00000  -0.00000
  -0.29094  -0.28716  -0.28716
  -0.29094  -0.28716   0.28716
  -0.29094   0.28716  -0.28716
  -0.29094   0.28716   0.28716
 vibration    14
   0.00000   0.00000   0.04177
  -0.28716  -0.28716  -0.29094
   0.28716   0.28716  -0.29094
  -0.28716   0.28716  -0.29094
   0.28716  -0.28716  -0.29094
 vibration    15
   0.00000  -0.00000  -0.00000
  -0.28868  -0.28868  -0.28868
   0.28868   0.28868  -0.28868
   0.28868  -0.28868   0.28868
  -0.28868   0.28868   0.28868
