[Molden Format]
[FREQ]
    0.00
    0.00
    0.00
    0.00
    0.00
    0.00
  740.93
  740.93
  903.94
  903.94
  903.94
 2519.34
 2519.34
 2519.34
 2750.97
[FR-COORD]
   Si          0.00000        0.00000        0.00000
   H           1.54237        1.54237        1.54237
   H          -1.54237       -1.54237        1.54237
   H          -1.54237        1.54237       -1.54237
   H           1.54237       -1.54237       -1.54237
[FR-NORM-COORD]
 vibration     1
  -0.05001   0.13212   0.04862
   0.05962  -0.29832   0.36943
  -0.42142   0.18272  -0.27219
   0.32141   0.56255   0.10764
  -0.15963   0.08151  -0.01040
 vibration     2
   0.01218  -0.11256  -0.07823
   0.28859  -0.39324  -0.07396
  -0.36900   0.26435  -0.08251
   0.39336   0.16813  -0.17873
  -0.26423  -0.48946   0.02226
 vibration     3
   0.20718  -0.07676   0.10750
  -0.00294  -0.27951   0.52036
   0.05399  -0.33643  -0.30536
   0.36038   0.12598   0.15705
   0.41730   0.18290   0.05795
 vibration     4
  -0.00864   0.01708  -0.15065
  -0.44060   0.07454   0.22384
  -0.14124  -0.22482  -0.52514
   0.12395  -0.04037  -0.34070
   0.42331   0.25899   0.03940
 vibration     5
   0.20566   0.17634  -0.09744
   0.40066   0.31012  -0.42621
   0.20267   0.50810   0.23133
   0.20865   0.04257  -0.23420
   0.01066  -0.15542   0.03933
 vibration     6
   0.01497  -0.00335  -0.07164
   0.24935  -0.26249  -0.04689
   0.24845  -0.26158  -0.09640
  -0.21851   0.25579   0.42098
  -0.21942   0.25488  -0.56427
 vibration     7
   0.00000   0.00000   0.00000
   0.40588  -0.24094  -0.16494
  -0.40588   0.24094  -0.16494
  -0.40588  -0.24094   0.16494
   0.40588   0.24094   0.16494
 vibration     8
   0.00000  -0.00000   0.00000
   0.04388   0.32957  -0.37344
  -0.04388  -0.32957  -0.37344
  -0.04388   0.32957   0.37344
   0.04388  -0.32957   0.37344
 vibration     9
   0.00000   0.00000   0.05544
   0.22372   0.22372  -0.38618
  -0.22372  -0.22372  -0.38618
   0.22372  -0.22372  -0.38618
  -0.22372   0.22372  -0.38618
 vibration    10
   0.00000  -0.05544   0.00000
  -0.22372   0.38618  -0.22372
  -0.22372   0.38618   0.22372
   0.22372   0.38618   0.22372
   0.22372   0.38618  -0.22372
 vibration    11
   0.05544   0.00000  -0.00000
  -0.38618   0.22372   0.22372
  -0.38618   0.22372  -0.22372
  -0.38618  -0.22372   0.22372
  -0.38618  -0.22372  -0.22372
 vibration    12
  -0.00000  -0.00000  -0.04177
   0.28716   0.28716   0.29094
  -0.28716  -0.28716   0.29094
   0.28716  -0.28716   0.29094
  -0.28716   0.28716   0.29094
 vibration    13
   0.00000   0.04177  -0.00000
  -0.28716  -0.29094  -0.28716
  -0.28716  -0.29094   0.28716
   0.28716  -0.29094   0.28716
   0.28716  -0.29094  -0.28716
 vibration    14
  -0.04177   0.00000   0.00000
   0.29094   0.28716   0.28716
   0.29094   0.28716  -0.28716
   0.29094  -0.28716   0.28716
   0.29094  -0.28716  -0.28716
 vibration    15
   0.00000  -0.00000  -0.00000
  -0.28868  -0.28868  -0.28868
   0.28868   0.28868  -0.28868
   0.28868  -0.28868   0.28868
  -0.28868   0.28868   0.28868
