ANIMSTEPS  15
CRYSTAL
PRIMVEC
   -3.175063252    0.000000000    3.175063252
    0.000000000    3.175063252    3.175063252
   -3.175063252    3.175063252    0.000000000
PRIMCOORD  1
      5   1
   Si     0.00000   0.00000   0.00000  -0.00028   0.00029  -0.00469
   H      0.81619   0.81619   0.81619   0.01966  -0.02298  -0.00136
   H     -0.81619  -0.81619   0.81619   0.02586  -0.02918  -0.00802
   H     -0.81619   0.81619  -0.81619  -0.02643   0.02357   0.04472
   H      0.81619  -0.81619  -0.81619  -0.02022   0.02977  -0.05411
PRIMCOORD  2
      5   1
   Si     0.00000   0.00000   0.00000  -0.01275  -0.00089   0.00296
   H      0.81619   0.81619   0.81619  -0.04715  -0.01191   0.04838
   H     -0.81619  -0.81619   0.81619  -0.02644  -0.03263  -0.04246
   H     -0.81619   0.81619  -0.81619   0.00093   0.01013   0.00029
   H      0.81619  -0.81619  -0.81619   0.02165   0.03084   0.00562
PRIMCOORD  3
      5   1
   Si     0.00000   0.00000   0.00000  -0.00461  -0.03166  -0.01856
   H      0.81619   0.81619   0.81619  -0.01954  -0.00359  -0.03170
   H     -0.81619  -0.81619   0.81619   0.00976  -0.03290  -0.00541
   H     -0.81619   0.81619  -0.81619  -0.01899  -0.05974  -0.03225
   H      0.81619  -0.81619  -0.81619   0.01032  -0.03043  -0.00486
PRIMCOORD  4
      5   1
   Si     0.00000   0.00000   0.00000   0.00848  -0.01216   0.02278
   H      0.81619   0.81619   0.81619  -0.00668   0.00854   0.01725
   H     -0.81619  -0.81619   0.81619   0.04452  -0.04266   0.02831
   H     -0.81619   0.81619  -0.81619  -0.02756  -0.03285   0.03813
   H      0.81619  -0.81619  -0.81619   0.02363   0.01835   0.00743
PRIMCOORD  5
      5   1
   Si     0.00000   0.00000   0.00000  -0.00800   0.00701  -0.00164
   H      0.81619   0.81619   0.81619  -0.02293   0.05065  -0.03036
   H     -0.81619  -0.81619   0.81619   0.03218  -0.00445   0.02708
   H     -0.81619   0.81619  -0.81619  -0.04819  -0.03663  -0.00510
   H      0.81619  -0.81619  -0.81619   0.00692   0.01848   0.00182
PRIMCOORD  6
      5   1
   Si     0.00000   0.00000   0.00000  -0.01534  -0.00470   0.00840
   H      0.81619   0.81619   0.81619   0.02849  -0.02100  -0.01913
   H     -0.81619  -0.81619   0.81619  -0.02081   0.02829   0.03592
   H     -0.81619   0.81619  -0.81619  -0.00987   0.01160   0.01923
   H      0.81619  -0.81619  -0.81619  -0.05917  -0.03770  -0.00243
PRIMCOORD  7
      5   1
   Si     0.00000   0.00000   0.00000   0.00000   0.00000   0.00000
   H      0.81619   0.81619   0.81619  -0.00984   0.03923  -0.02939
   H     -0.81619  -0.81619   0.81619   0.00984  -0.03923  -0.02939
   H     -0.81619   0.81619  -0.81619   0.00984   0.03923   0.02939
   H      0.81619  -0.81619  -0.81619  -0.00984  -0.03923   0.02939
PRIMCOORD  8
      5   1
   Si     0.00000   0.00000   0.00000  -0.00000  -0.00000   0.00000
   H      0.81619   0.81619   0.81619   0.03962  -0.01129  -0.02833
   H     -0.81619  -0.81619   0.81619  -0.03962   0.01129  -0.02833
   H     -0.81619   0.81619  -0.81619  -0.03962  -0.01129   0.02833
   H      0.81619  -0.81619  -0.81619   0.03962   0.01129   0.02833
PRIMCOORD  9
      5   1
   Si     0.00000   0.00000   0.00000   0.00000   0.00554   0.00000
   H      0.81619   0.81619   0.81619   0.02237  -0.03862   0.02237
   H     -0.81619  -0.81619   0.81619   0.02237  -0.03862  -0.02237
   H     -0.81619   0.81619  -0.81619  -0.02237  -0.03862  -0.02237
   H      0.81619  -0.81619  -0.81619  -0.02237  -0.03862   0.02237
PRIMCOORD 10
      5   1
   Si     0.00000   0.00000   0.00000  -0.00000   0.00000  -0.00554
   H      0.81619   0.81619   0.81619  -0.02237  -0.02237   0.03862
   H     -0.81619  -0.81619   0.81619   0.02237   0.02237   0.03862
   H     -0.81619   0.81619  -0.81619  -0.02237   0.02237   0.03862
   H      0.81619  -0.81619  -0.81619   0.02237  -0.02237   0.03862
PRIMCOORD 11
      5   1
   Si     0.00000   0.00000   0.00000  -0.00554   0.00000   0.00000
   H      0.81619   0.81619   0.81619   0.03862  -0.02237  -0.02237
   H     -0.81619  -0.81619   0.81619   0.03862  -0.02237   0.02237
   H     -0.81619   0.81619  -0.81619   0.03862   0.02237  -0.02237
   H      0.81619  -0.81619  -0.81619   0.03862   0.02237   0.02237
PRIMCOORD 12
      5   1
   Si     0.00000   0.00000   0.00000   0.00000  -0.00418   0.00000
   H      0.81619   0.81619   0.81619   0.02872   0.02909   0.02872
   H     -0.81619  -0.81619   0.81619   0.02872   0.02909  -0.02872
   H     -0.81619   0.81619  -0.81619  -0.02872   0.02909  -0.02872
   H      0.81619  -0.81619  -0.81619  -0.02872   0.02909   0.02872
PRIMCOORD 13
      5   1
   Si     0.00000   0.00000   0.00000   0.00418   0.00000  -0.00000
   H      0.81619   0.81619   0.81619  -0.02909  -0.02872  -0.02872
   H     -0.81619  -0.81619   0.81619  -0.02909  -0.02872   0.02872
   H     -0.81619   0.81619  -0.81619  -0.02909   0.02872  -0.02872
   H      0.81619  -0.81619  -0.81619  -0.02909   0.02872   0.02872
PRIMCOORD 14
      5   1
   Si     0.00000   0.00000   0.00000   0.00000   0.00000   0.00418
   H      0.81619   0.81619   0.81619  -0.02872  -0.02872  -0.02909
   H     -0.81619  -0.81619   0.81619   0.02872   0.02872  -0.02909
   H     -0.81619   0.81619  -0.81619  -0.02872   0.02872  -0.02909
   H      0.81619  -0.81619  -0.81619   0.02872  -0.02872  -0.02909
PRIMCOORD 15
      5   1
   Si     0.00000   0.00000   0.00000   0.00000  -0.00000  -0.00000
   H      0.81619   0.81619   0.81619  -0.02887  -0.02887  -0.02887
   H     -0.81619  -0.81619   0.81619   0.02887   0.02887  -0.02887
   H     -0.81619   0.81619  -0.81619   0.02887  -0.02887   0.02887
   H      0.81619  -0.81619  -0.81619  -0.02887   0.02887   0.02887
