ANIMSTEPS  15
CRYSTAL
PRIMVEC
   -3.175063252    0.000000000    3.175063252
    0.000000000    3.175063252    3.175063252
   -3.175063252    3.175063252    0.000000000
PRIMCOORD  1
      5   1
   Si     0.00000   0.00000   0.00000  -0.00500   0.01321   0.00486
   H      0.81619   0.81619   0.81619   0.00596  -0.02983   0.03694
   H     -0.81619  -0.81619   0.81619  -0.04214   0.01827  -0.02722
   H     -0.81619   0.81619  -0.81619   0.03214   0.05626   0.01076
   H      0.81619  -0.81619  -0.81619  -0.01596   0.00815  -0.00104
PRIMCOORD  2
      5   1
   Si     0.00000   0.00000   0.00000   0.00122  -0.01126  -0.00782
   H      0.81619   0.81619   0.81619   0.02886  -0.03932  -0.00740
   H     -0.81619  -0.81619   0.81619  -0.03690   0.02643  -0.00825
   H     -0.81619   0.81619  -0.81619   0.03934   0.01681  -0.01787
   H      0.81619  -0.81619  -0.81619  -0.02642  -0.04895   0.00223
PRIMCOORD  3
      5   1
   Si     0.00000   0.00000   0.00000   0.02072  -0.00768   0.01075
   H      0.81619   0.81619   0.81619  -0.00029  -0.02795   0.05204
   H     -0.81619  -0.81619   0.81619   0.00540  -0.03364  -0.03054
   H     -0.81619   0.81619  -0.81619   0.03604   0.01260   0.01570
   H      0.81619  -0.81619  -0.81619   0.04173   0.01829   0.00580
PRIMCOORD  4
      5   1
   Si     0.00000   0.00000   0.00000  -0.00086   0.00171  -0.01506
   H      0.81619   0.81619   0.81619  -0.04406   0.00745   0.02238
   H     -0.81619  -0.81619   0.81619  -0.01412  -0.02248  -0.05251
   H     -0.81619   0.81619  -0.81619   0.01239  -0.00404  -0.03407
   H      0.81619  -0.81619  -0.81619   0.04233   0.02590   0.00394
PRIMCOORD  5
      5   1
   Si     0.00000   0.00000   0.00000   0.02057   0.01763  -0.00974
   H      0.81619   0.81619   0.81619   0.04007   0.03101  -0.04262
   H     -0.81619  -0.81619   0.81619   0.02027   0.05081   0.02313
   H     -0.81619   0.81619  -0.81619   0.02086   0.00426  -0.02342
   H      0.81619  -0.81619  -0.81619   0.00107  -0.01554   0.00393
PRIMCOORD  6
      5   1
   Si     0.00000   0.00000   0.00000   0.00150  -0.00033  -0.00716
   H      0.81619   0.81619   0.81619   0.02494  -0.02625  -0.00469
   H     -0.81619  -0.81619   0.81619   0.02484  -0.02616  -0.00964
   H     -0.81619   0.81619  -0.81619  -0.02185   0.02558   0.04210
   H      0.81619  -0.81619  -0.81619  -0.02194   0.02549  -0.05643
PRIMCOORD  7
      5   1
   Si     0.00000   0.00000   0.00000   0.00000   0.00000   0.00000
   H      0.81619   0.81619   0.81619   0.04059  -0.02409  -0.01649
   H     -0.81619  -0.81619   0.81619  -0.04059   0.02409  -0.01649
   H     -0.81619   0.81619  -0.81619  -0.04059  -0.02409   0.01649
   H      0.81619  -0.81619  -0.81619   0.04059   0.02409   0.01649
PRIMCOORD  8
      5   1
   Si     0.00000   0.00000   0.00000   0.00000  -0.00000   0.00000
   H      0.81619   0.81619   0.81619   0.00439   0.03296  -0.03734
   H     -0.81619  -0.81619   0.81619  -0.00439  -0.03296  -0.03734
   H     -0.81619   0.81619  -0.81619  -0.00439   0.03296   0.03734
   H      0.81619  -0.81619  -0.81619   0.00439  -0.03296   0.03734
PRIMCOORD  9
      5   1
   Si     0.00000   0.00000   0.00000   0.00000   0.00000   0.00554
   H      0.81619   0.81619   0.81619   0.02237   0.02237  -0.03862
   H     -0.81619  -0.81619   0.81619  -0.02237  -0.02237  -0.03862
   H     -0.81619   0.81619  -0.81619   0.02237  -0.02237  -0.03862
   H      0.81619  -0.81619  -0.81619  -0.02237   0.02237  -0.03862
PRIMCOORD 10
      5   1
   Si     0.00000   0.00000   0.00000   0.00000  -0.00554   0.00000
   H      0.81619   0.81619   0.81619  -0.02237   0.03862  -0.02237
   H     -0.81619  -0.81619   0.81619  -0.02237   0.03862   0.02237
   H     -0.81619   0.81619  -0.81619   0.02237   0.03862   0.02237
   H      0.81619  -0.81619  -0.81619   0.02237   0.03862  -0.02237
PRIMCOORD 11
      5   1
   Si     0.00000   0.00000   0.00000   0.00554   0.00000  -0.00000
   H      0.81619   0.81619   0.81619  -0.03862   0.02237   0.02237
   H     -0.81619  -0.81619   0.81619  -0.03862   0.02237  -0.02237
   H     -0.81619   0.81619  -0.81619  -0.03862  -0.02237   0.02237
   H      0.81619  -0.81619  -0.81619  -0.03862  -0.02237  -0.02237
PRIMCOORD 12
      5   1
   Si     0.00000   0.00000   0.00000  -0.00000  -0.00000  -0.00418
   H      0.81619   0.81619   0.81619   0.02872   0.02872   0.02909
   H     -0.81619  -0.81619   0.81619  -0.02872  -0.02872   0.02909
   H     -0.81619   0.81619  -0.81619   0.02872  -0.02872   0.02909
   H      0.81619  -0.81619  -0.81619  -0.02872   0.02872   0.02909
PRIMCOORD 13
      5   1
   Si     0.00000   0.00000   0.00000   0.00000   0.00418  -0.00000
   H      0.81619   0.81619   0.81619  -0.02872  -0.02909  -0.02872
   H     -0.81619  -0.81619   0.81619  -0.02872  -0.02909   0.02872
   H     -0.81619   0.81619  -0.81619   0.02872  -0.02909   0.02872
   H      0.81619  -0.81619  -0.81619   0.02872  -0.02909  -0.02872
PRIMCOORD 14
      5   1
   Si     0.00000   0.00000   0.00000  -0.00418   0.00000   0.00000
   H      0.81619   0.81619   0.81619   0.02909   0.02872   0.02872
   H     -0.81619  -0.81619   0.81619   0.02909   0.02872  -0.02872
   H     -0.81619   0.81619  -0.81619   0.02909  -0.02872   0.02872
   H      0.81619  -0.81619  -0.81619   0.02909  -0.02872  -0.02872
PRIMCOORD 15
      5   1
   Si     0.00000   0.00000   0.00000   0.00000  -0.00000  -0.00000
   H      0.81619   0.81619   0.81619  -0.02887  -0.02887  -0.02887
   H     -0.81619  -0.81619   0.81619   0.02887   0.02887  -0.02887
   H     -0.81619   0.81619  -0.81619   0.02887  -0.02887   0.02887
   H      0.81619  -0.81619  -0.81619  -0.02887   0.02887   0.02887
