
     Program DYNMAT v.5.4.0 (svn rev. 12590M) starts on 21Jul2016 at 16: 7:18 

     This program is part of the open-source Quantum ESPRESSO suite
     for quantum simulation of materials; please cite
         "P. Giannozzi et al., J. Phys.:Condens. Matter 21 395502 (2009);
          URL http://www.quantum-espresso.org", 
     in publications or presentations arising from this work. More details at
     http://www.quantum-espresso.org/quote
 
           HOST :    x86_64-pc-linux-gnu
           ARCH :    x86_64
             CC :    icc
            CPP :    cpp
            F90 :    gfortran
            F77 :    gfortran
         DFLAGS :    -D__GFORTRAN -D__STD_F95 -D__DFTI -D__MPI -D__PARA -D__HDF5
      BLAS LIBS :    -lmkl_gf_lp64  -lmkl_sequential -lmkl_core
    LAPACK LIBS :    
       FFT LIBS :    
      MASS LIBS :    

     Parallel version (MPI), running on     1 processors

     Reading Dynamical Matrix from file sih4.dyn
     ...Force constants read
     ...epsilon and Z* read
     Acoustic Sum Rule: || Z*(ASR) - Z*(orig)|| =    3.863028E+00
     Acoustic Sum Rule: ||dyn(ASR) - dyn(orig)||=    3.457587E-02
     A direction for q was not specified:TO-LO splitting will be absent

     Polarizability (A^3 units)
     multiply by 0.436612 for Clausius-Mossotti correction
        19.720130   -0.000008   -0.000003
        -0.000008   19.720130   -0.000001
        -0.000003   -0.000001   19.720109

     IR activities are in (D/A)^2/amu units

# mode   [cm-1]    [THz]      IR
    1     -0.00   -0.0000    0.0000
    2     -0.00   -0.0000    0.0000
    3      0.00    0.0000    0.0000
    4      0.00    0.0000    0.0000
    5      0.00    0.0000    0.0000
    6      0.00    0.0000    0.0000
    7    740.93   22.2125    0.0000
    8    740.93   22.2125    0.0000
    9    903.94   27.0993   13.3079
   10    903.94   27.0993   13.3079
   11    903.94   27.0993   13.3079
   12   2519.34   75.5278   49.9818
   13   2519.34   75.5278   49.9820
   14   2519.34   75.5278   49.9820
   15   2750.97   82.4719    0.0000
 
     DYNMAT       :     0.01s CPU         0.01s WALL

 
   This run was terminated on:  16: 7:18  21Jul2016            

=------------------------------------------------------------------------------=
   JOB DONE.
=------------------------------------------------------------------------------=
