
     Program PWSCF v.5.4.0 (svn rev. 12590M) starts on 21Jul2016 at 15:46:38 

     This program is part of the open-source Quantum ESPRESSO suite
     for quantum simulation of materials; please cite
         "P. Giannozzi et al., J. Phys.:Condens. Matter 21 395502 (2009);
          URL http://www.quantum-espresso.org", 
     in publications or presentations arising from this work. More details at
     http://www.quantum-espresso.org/quote
 
           HOST :    x86_64-pc-linux-gnu
           ARCH :    x86_64
             CC :    icc
            CPP :    cpp
            F90 :    gfortran
            F77 :    gfortran
         DFLAGS :    -D__GFORTRAN -D__STD_F95 -D__DFTI -D__MPI -D__PARA -D__HDF5
      BLAS LIBS :    -lmkl_gf_lp64  -lmkl_sequential -lmkl_core
    LAPACK LIBS :    
       FFT LIBS :    
      MASS LIBS :    

     Parallel version (MPI), running on     2 processors
     R & G space division:  proc/nbgrp/npool/nimage =       2
     Waiting for input...
     Reading input from standard input

     Current dimensions of program PWSCF are:
     Max number of different atomic species (ntypx) = 10
     Max number of k-points (npk) =  40000
     Max angular momentum in pseudopotentials (lmaxx) =  3

     gamma-point specific algorithms are used

     Subspace diagonalization in iterative solution of the eigenvalue problem:
     a serial algorithm will be used

 
     Parallelization info
     --------------------
     sticks:   dense  smooth     PW     G-vecs:    dense   smooth      PW
     Min        1224    1224    303                45523    45523    5681
     Max        1225    1225    306                45524    45524    5682
     Sum        2449    2449    609                91047    91047   11363
     Tot        1225    1225    305
 


     bravais-lattice index     =            1
     lattice parameter (alat)  =      16.0000  a.u.
     unit-cell volume          =    4096.0000 (a.u.)^3
     number of atoms/cell      =            3
     number of atomic types    =            2
     number of electrons       =         8.00
     number of Kohn-Sham states=            8
     kinetic-energy cutoff     =      30.0000  Ry
     charge density cutoff     =     120.0000  Ry
     convergence threshold     =      1.0E-07
     mixing beta               =       0.7000
     number of iterations used =            8  plain     mixing
     Exchange-correlation      =  SLA  PW   PBX  PBC ( 1  4  3  4 0 0)
     nstep                     =           50

     Assuming isolated system, Martyna-Tuckerman method


     celldm(1)=  16.000000  celldm(2)=   0.000000  celldm(3)=   0.000000
     celldm(4)=   0.000000  celldm(5)=   0.000000  celldm(6)=   0.000000

     crystal axes: (cart. coord. in units of alat)
               a(1) = (   1.000000   0.000000   0.000000 )  
               a(2) = (   0.000000   1.000000   0.000000 )  
               a(3) = (   0.000000   0.000000   1.000000 )  

     reciprocal axes: (cart. coord. in units 2 pi/alat)
               b(1) = (  1.000000  0.000000  0.000000 )  
               b(2) = (  0.000000  1.000000  0.000000 )  
               b(3) = (  0.000000  0.000000  1.000000 )  


     PseudoPot. # 1 for  O read from file:
     /home/nvarini/espresso_hdf5/espresso/pseudo/O.pbe-kjpaw.UPF
     MD5 check sum: 90f4868982d1b5f8aada8373f3a0510a
     Pseudo is Projector augmented-wave + core cor, Zval =  6.0
     Generated using "atomic" code by A. Dal Corso (espresso distribution)
     Shape of augmentation charge: BESSEL
     Using radial grid of 1095 points,  4 beta functions with: 
                l(1) =   0
                l(2) =   0
                l(3) =   1
                l(4) =   1
     Q(r) pseudized with 0 coefficients 


     PseudoPot. # 2 for  H read from file:
     /home/nvarini/espresso_hdf5/espresso/pseudo/H.pbe-kjpaw.UPF
     MD5 check sum: b6732a8c2b51919c45a22ac3ed50cb01
     Pseudo is Projector augmented-wave, Zval =  1.0
     Generated using "atomic" code by A. Dal Corso (espresso distribution)
     Shape of augmentation charge: PSQ
     Using radial grid of  929 points,  2 beta functions with: 
                l(1) =   0
                l(2) =   0
     Q(r) pseudized with 0 coefficients 


     atomic species   valence    mass     pseudopotential
        O              6.00     1.00000      O( 1.00)
        H              1.00     1.00000      H( 1.00)

      4 Sym. Ops. (no inversion) found



   Cartesian axes

     site n.     atom                  positions (alat units)
         1           O   tau(   1) = (   0.0000000   0.0000000   0.0000000  )
         2           H   tau(   2) = (   0.0625000   0.0625000   0.0625000  )
         3           H   tau(   3) = (  -0.0625000  -0.0625000   0.0625000  )

     number of k points=     1
                       cart. coord. in units 2pi/alat
        k(    1) = (   0.0000000   0.0000000   0.0000000), wk =   2.0000000

     Dense  grid:    45524 G-vectors     FFT dimensions: (  60,  60,  60)

     Largest allocated arrays     est. size (Mb)     dimensions
        Kohn-Sham Wavefunctions         0.35 Mb     (    2841,    8)
        NL pseudopotentials             0.52 Mb     (    2841,   12)
        Each V/rho on FFT grid          1.65 Mb     (  108000)
        Each G-vector array             0.17 Mb     (   22762)
        G-vector shells                 0.00 Mb     (     651)
     Largest temporary arrays     est. size (Mb)     dimensions
        Auxiliary wavefunctions         0.69 Mb     (    2841,   32)
        Each subspace H/S matrix        0.01 Mb     (      32,   32)
        Each <psi_i|beta_j> matrix      0.00 Mb     (      12,    8)
        Arrays for rho mixing          13.18 Mb     (  108000,    8)

     Initial potential from superposition of free atoms
     Check: negative starting charge=   -0.004116

     starting charge    7.99999, renormalised to    8.00000

     negative rho (up, down):  4.116E-03 0.000E+00
     Starting wfc are    6 randomized atomic wfcs +    2 random wfc
     Checking if some PAW data can be deallocated... 

     total cpu time spent up to now is        0.8 secs

     per-process dynamical memory:    19.8 Mb

     Self-consistent Calculation

     iteration #  1     ecut=    30.00 Ry     beta=0.70
     Davidson diagonalization with overlap
     ethr =  1.00E-02,  avg # of iterations =  9.0

     negative rho (up, down):  8.852E-03 0.000E+00

     total cpu time spent up to now is        1.1 secs

     total energy              =     -43.77357710 Ry
     Harris-Foulkes estimate   =     -44.16120677 Ry
     estimated scf accuracy    <       0.49631126 Ry

     iteration #  2     ecut=    30.00 Ry     beta=0.70
     Davidson diagonalization with overlap
     ethr =  6.20E-03,  avg # of iterations =  2.0

     negative rho (up, down):  9.371E-03 0.000E+00

     total cpu time spent up to now is        1.3 secs

     total energy              =     -43.88007171 Ry
     Harris-Foulkes estimate   =     -44.12274955 Ry
     estimated scf accuracy    <       0.47126967 Ry

     iteration #  3     ecut=    30.00 Ry     beta=0.70
     Davidson diagonalization with overlap
     ethr =  5.89E-03,  avg # of iterations =  2.0

     negative rho (up, down):  1.269E-02 0.000E+00

     total cpu time spent up to now is        1.5 secs

     total energy              =     -43.98651722 Ry
     Harris-Foulkes estimate   =     -43.98941056 Ry
     estimated scf accuracy    <       0.00605886 Ry

     iteration #  4     ecut=    30.00 Ry     beta=0.70
     Davidson diagonalization with overlap
     ethr =  7.57E-05,  avg # of iterations =  5.0

     negative rho (up, down):  1.216E-02 0.000E+00

     total cpu time spent up to now is        1.7 secs

     total energy              =     -43.98874279 Ry
     Harris-Foulkes estimate   =     -43.98901541 Ry
     estimated scf accuracy    <       0.00072354 Ry

     iteration #  5     ecut=    30.00 Ry     beta=0.70
     Davidson diagonalization with overlap
     ethr =  9.04E-06,  avg # of iterations =  6.0

     negative rho (up, down):  1.206E-02 0.000E+00

     total cpu time spent up to now is        1.9 secs

     total energy              =     -43.98875237 Ry
     Harris-Foulkes estimate   =     -43.98878716 Ry
     estimated scf accuracy    <       0.00008857 Ry

     iteration #  6     ecut=    30.00 Ry     beta=0.70
     Davidson diagonalization with overlap
     ethr =  1.11E-06,  avg # of iterations =  4.0

     negative rho (up, down):  1.209E-02 0.000E+00

     total cpu time spent up to now is        2.2 secs

     total energy              =     -43.98876250 Ry
     Harris-Foulkes estimate   =     -43.98876298 Ry
     estimated scf accuracy    <       0.00000159 Ry

     iteration #  7     ecut=    30.00 Ry     beta=0.70
     Davidson diagonalization with overlap
     ethr =  1.99E-08,  avg # of iterations =  2.0

     negative rho (up, down):  1.210E-02 0.000E+00

     total cpu time spent up to now is        2.4 secs

     End of self-consistent calculation

          k = 0.0000 0.0000 0.0000 (  5682 PWs)   bands (ev):

   -25.8177 -13.8680  -9.1073  -7.3261  -1.2191   0.6253   0.7899   1.2188

     highest occupied, lowest unoccupied level (ev):    -7.3261   -1.2191

!    total energy              =     -43.98876303 Ry
     Harris-Foulkes estimate   =     -43.98876306 Ry
     estimated scf accuracy    <       0.00000008 Ry

     total all-electron energy =      -152.749509 Ry

     The total energy is the sum of the following terms:

     one-electron contribution =     -83.29426078 Ry
     hartree contribution      =      43.17072813 Ry
     xc contribution           =      -8.51460083 Ry
     ewald contribution        =      14.56351319 Ry
     one-center paw contrib.   =      -9.91414275 Ry

     convergence has been achieved in   7 iterations

     negative rho (up, down):  1.210E-02 0.000E+00

     Forces acting on atoms (Ry/au):

     atom    1 type  1   force =     0.00000000    0.00000000   -0.15903054
     atom    2 type  2   force =     0.07225209    0.07225209    0.07951527
     atom    3 type  2   force =    -0.07225209   -0.07225209    0.07951527

     Total force =     0.183103     Total SCF correction =     0.000106

     BFGS Geometry Optimization

     number of scf cycles    =   1
     number of bfgs steps    =   0

     energy   new            =     -43.9887630272 Ry

     new trust radius        =       0.1294735723 bohr
     new conv_thr            =       0.0000001000 Ry


ATOMIC_POSITIONS (bohr)
O        0.000000000   0.000000000   0.000000000    0   0   0
H        1.072252086   1.072252086   1.079515270
H       -1.072252086  -1.072252086   1.079515270



     Writing output data file H2O.save
     Check: negative starting charge=   -0.004116
     NEW-OLD atomic charge density approx. for the potential
     Check: negative starting charge=   -0.004120

     negative rho (up, down):  1.064E-02 0.000E+00

     total cpu time spent up to now is        2.8 secs

     per-process dynamical memory:    43.4 Mb

     Self-consistent Calculation

     iteration #  1     ecut=    30.00 Ry     beta=0.70
     Davidson diagonalization with overlap
     WARNING:     1 eigenvalues not converged in regterg
     c_bands:  1 eigenvalues not converged
     ethr =  1.00E-06,  avg # of iterations = 20.0

     negative rho (up, down):  1.022E-02 0.000E+00

     total cpu time spent up to now is        3.2 secs

     total energy              =     -43.99546539 Ry
     Harris-Foulkes estimate   =     -44.00419788 Ry
     estimated scf accuracy    <       0.01184925 Ry

     iteration #  2     ecut=    30.00 Ry     beta=0.70
     Davidson diagonalization with overlap
     ethr =  1.48E-04,  avg # of iterations =  2.0

     negative rho (up, down):  1.025E-02 0.000E+00

     total cpu time spent up to now is        3.4 secs

     total energy              =     -43.99807636 Ry
     Harris-Foulkes estimate   =     -44.00485536 Ry
     estimated scf accuracy    <       0.01356775 Ry

     iteration #  3     ecut=    30.00 Ry     beta=0.70
     Davidson diagonalization with overlap
     ethr =  1.48E-04,  avg # of iterations =  2.0

     negative rho (up, down):  1.045E-02 0.000E+00

     total cpu time spent up to now is        3.6 secs

     total energy              =     -44.00088483 Ry
     Harris-Foulkes estimate   =     -44.00088529 Ry
     estimated scf accuracy    <       0.00004860 Ry

     iteration #  4     ecut=    30.00 Ry     beta=0.70
     Davidson diagonalization with overlap
     ethr =  6.08E-07,  avg # of iterations = 12.0

     negative rho (up, down):  1.045E-02 0.000E+00

     total cpu time spent up to now is        3.8 secs

     total energy              =     -44.00091503 Ry
     Harris-Foulkes estimate   =     -44.00091564 Ry
     estimated scf accuracy    <       0.00000347 Ry

     iteration #  5     ecut=    30.00 Ry     beta=0.70
     Davidson diagonalization with overlap
     ethr =  4.34E-08,  avg # of iterations =  1.0

     negative rho (up, down):  1.045E-02 0.000E+00

     total cpu time spent up to now is        4.0 secs

     total energy              =     -44.00091527 Ry
     Harris-Foulkes estimate   =     -44.00091528 Ry
     estimated scf accuracy    <       0.00000026 Ry

     iteration #  6     ecut=    30.00 Ry     beta=0.70
     Davidson diagonalization with overlap
     ethr =  3.23E-09,  avg # of iterations =  2.0

     negative rho (up, down):  1.045E-02 0.000E+00

     total cpu time spent up to now is        4.2 secs

     End of self-consistent calculation

          k = 0.0000 0.0000 0.0000 (  5682 PWs)   bands (ev):

   -25.0326 -13.1744  -9.0194  -7.1700  -1.3298   0.5124   0.6719   1.2005

     highest occupied, lowest unoccupied level (ev):    -7.1700   -1.3298

!    total energy              =     -44.00091532 Ry
     Harris-Foulkes estimate   =     -44.00091537 Ry
     estimated scf accuracy    <       0.00000005 Ry

     total all-electron energy =      -152.761662 Ry

     The total energy is the sum of the following terms:

     one-electron contribution =     -81.64845059 Ry
     hartree contribution      =      42.40159404 Ry
     xc contribution           =      -8.38556246 Ry
     ewald contribution        =      13.55299469 Ry
     one-center paw contrib.   =      -9.92149100 Ry

     convergence has been achieved in   6 iterations

     negative rho (up, down):  1.045E-02 0.000E+00

     Forces acting on atoms (Ry/au):

     atom    1 type  1   force =     0.00000000    0.00000000    0.00537150
     atom    2 type  2   force =    -0.01913885   -0.01913885   -0.00268575
     atom    3 type  2   force =     0.01913885    0.01913885   -0.00268575

     Total force =     0.038466     Total SCF correction =     0.000085

     number of scf cycles    =   2
     number of bfgs steps    =   1

     energy   old            =     -43.9887630272 Ry
     energy   new            =     -44.0009153232 Ry

     CASE: energy  _new < energy  _old

     new trust radius        =       0.0221128588 bohr
     new conv_thr            =       0.0000000191 Ry


ATOMIC_POSITIONS (bohr)
O        0.000000000   0.000000000   0.000000000    0   0   0
H        1.056654949   1.056654949   1.077954130
H       -1.056654949  -1.056654949   1.077954130



     Writing output data file H2O.save
     Check: negative starting charge=   -0.004120
     NEW-OLD atomic charge density approx. for the potential
     Check: negative starting charge=   -0.004119

     negative rho (up, down):  1.056E-02 0.000E+00

     total cpu time spent up to now is        4.7 secs

     per-process dynamical memory:    43.4 Mb

     Self-consistent Calculation

     iteration #  1     ecut=    30.00 Ry     beta=0.70
     Davidson diagonalization with overlap
     ethr =  1.00E-06,  avg # of iterations =  4.0

     negative rho (up, down):  1.067E-02 0.000E+00

     total cpu time spent up to now is        4.9 secs

     total energy              =     -44.00166217 Ry
     Harris-Foulkes estimate   =     -44.00177952 Ry
     estimated scf accuracy    <       0.00017833 Ry

     iteration #  2     ecut=    30.00 Ry     beta=0.70
     Davidson diagonalization with overlap
     ethr =  2.23E-06,  avg # of iterations =  3.0

     negative rho (up, down):  1.069E-02 0.000E+00

     total cpu time spent up to now is        5.1 secs

     total energy              =     -44.00169665 Ry
     Harris-Foulkes estimate   =     -44.00178579 Ry
     estimated scf accuracy    <       0.00017325 Ry

     iteration #  3     ecut=    30.00 Ry     beta=0.70
     Davidson diagonalization with overlap
     ethr =  2.17E-06,  avg # of iterations =  2.0

     negative rho (up, down):  1.070E-02 0.000E+00

     total cpu time spent up to now is        5.3 secs

     total energy              =     -44.00173556 Ry
     Harris-Foulkes estimate   =     -44.00173569 Ry
     estimated scf accuracy    <       0.00000165 Ry

     iteration #  4     ecut=    30.00 Ry     beta=0.70
     Davidson diagonalization with overlap
     ethr =  2.06E-08,  avg # of iterations =  2.0

     negative rho (up, down):  1.071E-02 0.000E+00

     total cpu time spent up to now is        5.5 secs

     total energy              =     -44.00173621 Ry
     Harris-Foulkes estimate   =     -44.00173620 Ry
     estimated scf accuracy    <       0.00000005 Ry

     iteration #  5     ecut=    30.00 Ry     beta=0.70
     Davidson diagonalization with overlap
     ethr =  6.48E-10,  avg # of iterations =  2.0

     negative rho (up, down):  1.071E-02 0.000E+00

     total cpu time spent up to now is        5.7 secs

     End of self-consistent calculation

          k = 0.0000 0.0000 0.0000 (  5682 PWs)   bands (ev):

   -25.1531 -13.2364  -9.0680  -7.1949  -1.3114   0.5297   0.6939   1.2029

     highest occupied, lowest unoccupied level (ev):    -7.1949   -1.3114

!    total energy              =     -44.00173622 Ry
     Harris-Foulkes estimate   =     -44.00173621 Ry
     estimated scf accuracy    <          3.7E-09 Ry

     total all-electron energy =      -152.762482 Ry

     The total energy is the sum of the following terms:

     one-electron contribution =     -81.88134019 Ry
     hartree contribution      =      42.50932202 Ry
     xc contribution           =      -8.40345842 Ry
     ewald contribution        =      13.69455516 Ry
     one-center paw contrib.   =      -9.92081479 Ry

     convergence has been achieved in   5 iterations

     negative rho (up, down):  1.071E-02 0.000E+00

     Forces acting on atoms (Ry/au):

     atom    1 type  1   force =     0.00000000    0.00000000   -0.01126380
     atom    2 type  2   force =    -0.00720848   -0.00720848    0.00563190
     atom    3 type  2   force =     0.00720848    0.00720848    0.00563190

     Total force =     0.016471     Total SCF correction =     0.000022

     number of scf cycles    =   3
     number of bfgs steps    =   2

     energy   old            =     -44.0009153232 Ry
     energy   new            =     -44.0017362166 Ry

     CASE: energy  _new < energy  _old

     new trust radius        =       0.0199625723 bohr
     new conv_thr            =       0.0000000072 Ry


ATOMIC_POSITIONS (bohr)
O        0.000000000   0.000000000   0.000000000    0   0   0
H        1.044265141   1.044265141   1.087519152
H       -1.044265141  -1.044265141   1.087519152



     Writing output data file H2O.save
     Check: negative starting charge=   -0.004119
     NEW-OLD atomic charge density approx. for the potential
     Check: negative starting charge=   -0.004108

     negative rho (up, down):  1.076E-02 0.000E+00

     total cpu time spent up to now is        6.2 secs

     per-process dynamical memory:    43.4 Mb

     Self-consistent Calculation

     iteration #  1     ecut=    30.00 Ry     beta=0.70
     Davidson diagonalization with overlap
     ethr =  1.00E-06,  avg # of iterations =  3.0

     negative rho (up, down):  1.080E-02 0.000E+00

     total cpu time spent up to now is        6.4 secs

     total energy              =     -44.00204423 Ry
     Harris-Foulkes estimate   =     -44.00205704 Ry
     estimated scf accuracy    <       0.00003933 Ry

     iteration #  2     ecut=    30.00 Ry     beta=0.70
     Davidson diagonalization with overlap
     ethr =  4.92E-07,  avg # of iterations =  2.0

     negative rho (up, down):  1.081E-02 0.000E+00

     total cpu time spent up to now is        6.6 secs

     total energy              =     -44.00204912 Ry
     Harris-Foulkes estimate   =     -44.00206037 Ry
     estimated scf accuracy    <       0.00002057 Ry

     iteration #  3     ecut=    30.00 Ry     beta=0.70
     Davidson diagonalization with overlap
     ethr =  2.57E-07,  avg # of iterations =  2.0

     negative rho (up, down):  1.081E-02 0.000E+00

     total cpu time spent up to now is        6.8 secs

     total energy              =     -44.00205488 Ry
     Harris-Foulkes estimate   =     -44.00205535 Ry
     estimated scf accuracy    <       0.00000178 Ry

     iteration #  4     ecut=    30.00 Ry     beta=0.70
     Davidson diagonalization with overlap
     ethr =  2.22E-08,  avg # of iterations =  2.0

     negative rho (up, down):  1.082E-02 0.000E+00

     total cpu time spent up to now is        7.0 secs

     total energy              =     -44.00205524 Ry
     Harris-Foulkes estimate   =     -44.00205523 Ry
     estimated scf accuracy    <       0.00000001 Ry

     iteration #  5     ecut=    30.00 Ry     beta=0.70
     Davidson diagonalization with overlap
     ethr =  1.35E-10,  avg # of iterations =  3.0

     negative rho (up, down):  1.082E-02 0.000E+00

     total cpu time spent up to now is        7.3 secs

     End of self-consistent calculation

          k = 0.0000 0.0000 0.0000 (  5682 PWs)   bands (ev):

   -25.2237 -13.2279  -9.1290  -7.2104  -1.3041   0.5349   0.7063   1.2067

     highest occupied, lowest unoccupied level (ev):    -7.2104   -1.3041

!    total energy              =     -44.00205525 Ry
     Harris-Foulkes estimate   =     -44.00205524 Ry
     estimated scf accuracy    <          1.0E-09 Ry

     total all-electron energy =      -152.762801 Ry

     The total energy is the sum of the following terms:

     one-electron contribution =     -81.99193388 Ry
     hartree contribution      =      42.55969253 Ry
     xc contribution           =      -8.41193664 Ry
     ewald contribution        =      13.76304791 Ry
     one-center paw contrib.   =      -9.92092517 Ry

     convergence has been achieved in   5 iterations

     negative rho (up, down):  1.082E-02 0.000E+00

     Forces acting on atoms (Ry/au):

     atom    1 type  1   force =     0.00000000    0.00000000   -0.01687325
     atom    2 type  2   force =    -0.00020819   -0.00020819    0.00843662
     atom    3 type  2   force =     0.00020819    0.00020819    0.00843662

     Total force =     0.011938     Total SCF correction =     0.000012

     number of scf cycles    =   4
     number of bfgs steps    =   3

     energy   old            =     -44.0017362166 Ry
     energy   new            =     -44.0020552455 Ry

     CASE: energy  _new < energy  _old

     new trust radius        =       0.0222466931 bohr
     new conv_thr            =       0.0000000032 Ry


ATOMIC_POSITIONS (bohr)
O        0.000000000   0.000000000   0.000000000    0   0   0
H        1.034613630   1.034613630   1.105086509
H       -1.034613630  -1.034613630   1.105086509



     Writing output data file H2O.save
     Check: negative starting charge=   -0.004108
     NEW-OLD atomic charge density approx. for the potential
     Check: negative starting charge=   -0.004090

     negative rho (up, down):  1.081E-02 0.000E+00

     total cpu time spent up to now is        7.7 secs

     per-process dynamical memory:    43.4 Mb

     Self-consistent Calculation

     iteration #  1     ecut=    30.00 Ry     beta=0.70
     Davidson diagonalization with overlap
     ethr =  1.00E-06,  avg # of iterations =  3.0

     negative rho (up, down):  1.079E-02 0.000E+00

     total cpu time spent up to now is        7.9 secs

     total energy              =     -44.00226826 Ry
     Harris-Foulkes estimate   =     -44.00226161 Ry
     estimated scf accuracy    <       0.00001536 Ry

     iteration #  2     ecut=    30.00 Ry     beta=0.70
     Davidson diagonalization with overlap
     ethr =  1.92E-07,  avg # of iterations =  3.0

     negative rho (up, down):  1.080E-02 0.000E+00

     total cpu time spent up to now is        8.1 secs

     total energy              =     -44.00227450 Ry
     Harris-Foulkes estimate   =     -44.00227361 Ry
     estimated scf accuracy    <       0.00000173 Ry

     iteration #  3     ecut=    30.00 Ry     beta=0.70
     Davidson diagonalization with overlap
     ethr =  2.16E-08,  avg # of iterations =  2.0

     negative rho (up, down):  1.080E-02 0.000E+00

     total cpu time spent up to now is        8.3 secs

     total energy              =     -44.00227463 Ry
     Harris-Foulkes estimate   =     -44.00227464 Ry
     estimated scf accuracy    <       0.00000005 Ry

     iteration #  4     ecut=    30.00 Ry     beta=0.70
     Davidson diagonalization with overlap
     ethr =  6.67E-10,  avg # of iterations =  2.0

     negative rho (up, down):  1.080E-02 0.000E+00

     total cpu time spent up to now is        8.5 secs

     total energy              =     -44.00227465 Ry
     Harris-Foulkes estimate   =     -44.00227466 Ry
     estimated scf accuracy    <       0.00000002 Ry

     iteration #  5     ecut=    30.00 Ry     beta=0.70
     Davidson diagonalization with overlap
     ethr =  2.34E-10,  avg # of iterations =  2.0

     negative rho (up, down):  1.080E-02 0.000E+00

     total cpu time spent up to now is        8.7 secs

     End of self-consistent calculation

          k = 0.0000 0.0000 0.0000 (  5682 PWs)   bands (ev):

   -25.2526 -13.1658  -9.1972  -7.2180  -1.3056   0.5319   0.7106   1.2102

     highest occupied, lowest unoccupied level (ev):    -7.2180   -1.3056

!    total energy              =     -44.00227465 Ry
     Harris-Foulkes estimate   =     -44.00227466 Ry
     estimated scf accuracy    <          1.1E-09 Ry

     total all-electron energy =      -152.763021 Ry

     The total energy is the sum of the following terms:

     one-electron contribution =     -82.00426769 Ry
     hartree contribution      =      42.56384861 Ry
     xc contribution           =      -8.41274178 Ry
     ewald contribution        =      13.77249818 Ry
     one-center paw contrib.   =      -9.92161198 Ry

     convergence has been achieved in   5 iterations

     negative rho (up, down):  1.080E-02 0.000E+00

     Forces acting on atoms (Ry/au):

     atom    1 type  1   force =     0.00000000    0.00000000   -0.01300769
     atom    2 type  2   force =     0.00250189    0.00250189    0.00650385
     atom    3 type  2   force =    -0.00250189   -0.00250189    0.00650385

     Total force =     0.010471     Total SCF correction =     0.000014

     number of scf cycles    =   5
     number of bfgs steps    =   4

     energy   old            =     -44.0020552455 Ry
     energy   new            =     -44.0022746545 Ry

     CASE: energy  _new < energy  _old

     new trust radius        =       0.0202290065 bohr
     new conv_thr            =       0.0000000022 Ry


ATOMIC_POSITIONS (bohr)
O        0.000000000   0.000000000   0.000000000    0   0   0
H        1.029100084   1.029100084   1.123752368
H       -1.029100084  -1.029100084   1.123752368



     Writing output data file H2O.save
     Check: negative starting charge=   -0.004090
     NEW-OLD atomic charge density approx. for the potential
     Check: negative starting charge=   -0.004077

     negative rho (up, down):  1.076E-02 0.000E+00

     total cpu time spent up to now is        9.2 secs

     per-process dynamical memory:    43.4 Mb

     Self-consistent Calculation

     iteration #  1     ecut=    30.00 Ry     beta=0.70
     Davidson diagonalization with overlap
     ethr =  1.00E-06,  avg # of iterations =  3.0

     negative rho (up, down):  1.073E-02 0.000E+00

     total cpu time spent up to now is        9.4 secs

     total energy              =     -44.00237123 Ry
     Harris-Foulkes estimate   =     -44.00238460 Ry
     estimated scf accuracy    <       0.00003438 Ry

     iteration #  2     ecut=    30.00 Ry     beta=0.70
     Davidson diagonalization with overlap
     ethr =  4.30E-07,  avg # of iterations =  2.0

     negative rho (up, down):  1.072E-02 0.000E+00

     total cpu time spent up to now is        9.6 secs

     total energy              =     -44.00237653 Ry
     Harris-Foulkes estimate   =     -44.00239028 Ry
     estimated scf accuracy    <       0.00002766 Ry

     iteration #  3     ecut=    30.00 Ry     beta=0.70
     Davidson diagonalization with overlap
     ethr =  3.46E-07,  avg # of iterations =  2.0

     negative rho (up, down):  1.072E-02 0.000E+00

     total cpu time spent up to now is        9.8 secs

     total energy              =     -44.00238327 Ry
     Harris-Foulkes estimate   =     -44.00238314 Ry
     estimated scf accuracy    <       0.00000085 Ry

     iteration #  4     ecut=    30.00 Ry     beta=0.70
     Davidson diagonalization with overlap
     ethr =  1.06E-08,  avg # of iterations =  2.0

     negative rho (up, down):  1.072E-02 0.000E+00

     total cpu time spent up to now is       10.0 secs

     total energy              =     -44.00238345 Ry
     Harris-Foulkes estimate   =     -44.00238345 Ry
     estimated scf accuracy    <          7.9E-09 Ry

     iteration #  5     ecut=    30.00 Ry     beta=0.70
     Davidson diagonalization with overlap
     ethr =  9.84E-11,  avg # of iterations =  2.0

     negative rho (up, down):  1.072E-02 0.000E+00

     total cpu time spent up to now is       10.2 secs

     End of self-consistent calculation

          k = 0.0000 0.0000 0.0000 (  5682 PWs)   bands (ev):

   -25.2458 -13.0834  -9.2536  -7.2185  -1.3129   0.5234   0.7081   1.2128

     highest occupied, lowest unoccupied level (ev):    -7.2185   -1.3129

!    total energy              =     -44.00238345 Ry
     Harris-Foulkes estimate   =     -44.00238345 Ry
     estimated scf accuracy    <          1.3E-09 Ry

     total all-electron energy =      -152.763130 Ry

     The total energy is the sum of the following terms:

     one-electron contribution =     -81.94701883 Ry
     hartree contribution      =      42.53566396 Ry
     xc contribution           =      -8.40814749 Ry
     ewald contribution        =      13.73962734 Ry
     one-center paw contrib.   =      -9.92250842 Ry

     convergence has been achieved in   5 iterations

     negative rho (up, down):  1.072E-02 0.000E+00

     Forces acting on atoms (Ry/au):

     atom    1 type  1   force =     0.00000000    0.00000000   -0.00341409
     atom    2 type  2   force =     0.00163971    0.00163971    0.00170705
     atom    3 type  2   force =    -0.00163971   -0.00163971    0.00170705

     Total force =     0.004072     Total SCF correction =     0.000002

     number of scf cycles    =   6
     number of bfgs steps    =   5

     energy   old            =     -44.0022746545 Ry
     energy   new            =     -44.0023834472 Ry

     CASE: energy  _new < energy  _old

     new trust radius        =       0.0028050367 bohr
     new conv_thr            =       0.0000000011 Ry


ATOMIC_POSITIONS (bohr)
O        0.000000000   0.000000000   0.000000000    0   0   0
H        1.029816408   1.029816408   1.126368088
H       -1.029816408  -1.029816408   1.126368088



     Writing output data file H2O.save
     Check: negative starting charge=   -0.004077
     NEW-OLD atomic charge density approx. for the potential
     Check: negative starting charge=   -0.004078

     negative rho (up, down):  1.071E-02 0.000E+00

     total cpu time spent up to now is       10.7 secs

     per-process dynamical memory:    43.4 Mb

     Self-consistent Calculation

     iteration #  1     ecut=    30.00 Ry     beta=0.70
     Davidson diagonalization with overlap
     ethr =  1.00E-06,  avg # of iterations =  2.0

     Threshold (ethr) on eigenvalues was too large:
     Diagonalizing with lowered threshold

     Davidson diagonalization with overlap
     ethr =  3.95E-08,  avg # of iterations =  1.0

     negative rho (up, down):  1.069E-02 0.000E+00

     total cpu time spent up to now is       11.0 secs

     total energy              =     -44.00239000 Ry
     Harris-Foulkes estimate   =     -44.00239265 Ry
     estimated scf accuracy    <       0.00000344 Ry

     iteration #  2     ecut=    30.00 Ry     beta=0.70
     Davidson diagonalization with overlap
     ethr =  4.30E-08,  avg # of iterations =  2.0

     negative rho (up, down):  1.069E-02 0.000E+00

     total cpu time spent up to now is       11.2 secs

     total energy              =     -44.00239071 Ry
     Harris-Foulkes estimate   =     -44.00239244 Ry
     estimated scf accuracy    <       0.00000340 Ry

     iteration #  3     ecut=    30.00 Ry     beta=0.70
     Davidson diagonalization with overlap
     ethr =  4.24E-08,  avg # of iterations =  2.0

     negative rho (up, down):  1.069E-02 0.000E+00

     total cpu time spent up to now is       11.4 secs

     total energy              =     -44.00239146 Ry
     Harris-Foulkes estimate   =     -44.00239146 Ry
     estimated scf accuracy    <       0.00000003 Ry

     iteration #  4     ecut=    30.00 Ry     beta=0.70
     Davidson diagonalization with overlap
     ethr =  3.28E-10,  avg # of iterations =  2.0

     negative rho (up, down):  1.069E-02 0.000E+00

     total cpu time spent up to now is       11.6 secs

     End of self-consistent calculation

          k = 0.0000 0.0000 0.0000 (  5682 PWs)   bands (ev):

   -25.2333 -13.0674  -9.2562  -7.2162  -1.3154   0.5208   0.7056   1.2128

     highest occupied, lowest unoccupied level (ev):    -7.2162   -1.3154

!    total energy              =     -44.00239148 Ry
     Harris-Foulkes estimate   =     -44.00239148 Ry
     estimated scf accuracy    <          5.8E-10 Ry

     total all-electron energy =      -152.763138 Ry

     The total energy is the sum of the following terms:

     one-electron contribution =     -81.91783501 Ry
     hartree contribution      =      42.52186850 Ry
     xc contribution           =      -8.40586652 Ry
     ewald contribution        =      13.72212759 Ry
     one-center paw contrib.   =      -9.92268604 Ry

     convergence has been achieved in   4 iterations

     negative rho (up, down):  1.069E-02 0.000E+00

     Forces acting on atoms (Ry/au):

     atom    1 type  1   force =     0.00000000    0.00000000   -0.00045238
     atom    2 type  2   force =     0.00039064    0.00039064    0.00022619
     atom    3 type  2   force =    -0.00039064   -0.00039064    0.00022619

     Total force =     0.000844     Total SCF correction =     0.000003

     bfgs converged in   7 scf cycles and   6 bfgs steps
     (criteria: energy <  1.0E-04, force <  1.0E-03)

     End of BFGS Geometry Optimization

     Final energy   =     -44.0023914768 Ry
Begin final coordinates

ATOMIC_POSITIONS (bohr)
O        0.000000000   0.000000000   0.000000000    0   0   0
H        1.029816408   1.029816408   1.126368088
H       -1.029816408  -1.029816408   1.126368088
End final coordinates



     Writing output data file H2O.save
 
     init_run     :      0.48s CPU      0.50s WALL (       1 calls)
     electrons    :      8.15s CPU      8.21s WALL (       7 calls)
     update_pot   :      1.08s CPU      1.11s WALL (       6 calls)
     forces       :      0.90s CPU      0.90s WALL (       7 calls)

     Called by init_run:
     wfcinit      :      0.02s CPU      0.02s WALL (       1 calls)
     potinit      :      0.14s CPU      0.15s WALL (       1 calls)

     Called by electrons:
     c_bands      :      1.71s CPU      1.72s WALL (      38 calls)
     sum_band     :      1.16s CPU      1.17s WALL (      38 calls)
     v_of_rho     :      3.06s CPU      3.07s WALL (      44 calls)
     newd         :      0.54s CPU      0.55s WALL (      44 calls)
     PAW_pot      :      2.51s CPU      2.51s WALL (      50 calls)
     mix_rho      :      0.17s CPU      0.17s WALL (      38 calls)

     Called by c_bands:
     init_us_2    :      0.08s CPU      0.08s WALL (      83 calls)
     regterg      :      1.62s CPU      1.63s WALL (      38 calls)

     Called by sum_band:
     sum_band:bec :      0.00s CPU      0.00s WALL (      44 calls)
     addusdens    :      0.69s CPU      0.69s WALL (      38 calls)

     Called by *egterg:
     h_psi        :      1.41s CPU      1.42s WALL (     165 calls)
     s_psi        :      0.02s CPU      0.02s WALL (     165 calls)
     g_psi        :      0.02s CPU      0.02s WALL (     126 calls)
     rdiaghg      :      0.03s CPU      0.03s WALL (     157 calls)

     Called by h_psi:
     add_vuspsi   :      0.02s CPU      0.02s WALL (     165 calls)

     General routines
     calbec       :      0.05s CPU      0.04s WALL (     237 calls)
     fft          :      1.42s CPU      1.43s WALL (     658 calls)
     fftw         :      1.38s CPU      1.39s WALL (    1090 calls)
 
     Parallel routines
     fft_scatter  :      0.77s CPU      0.77s WALL (    1748 calls)
 
     PWSCF        :    11.59s CPU        11.76s WALL

 
   This run was terminated on:  15:46:49  21Jul2016            

=------------------------------------------------------------------------------=
   JOB DONE.
=------------------------------------------------------------------------------=
