
     Program PWSCF v.5.4.0 (svn rev. 12828M) starts on 23Aug2016 at 14:43:56 

     This program is part of the open-source Quantum ESPRESSO suite
     for quantum simulation of materials; please cite
         "P. Giannozzi et al., J. Phys.:Condens. Matter 21 395502 (2009);
          URL http://www.quantum-espresso.org", 
     in publications or presentations arising from this work. More details at
     http://www.quantum-espresso.org/quote
 
           HOST :    x86_64-pc-linux-gnu
           ARCH :    x86_64
             CC :    icc
            CPP :    cpp
            F90 :    ifort
            F77 :    ifort
         DFLAGS :    -D__INTEL -D__FFTW -D__MPI -D__PARA -D__HDF5
      BLAS LIBS :    -lmkl_intel_lp64  -lmkl_sequential -lmkl_core
    LAPACK LIBS :    
       FFT LIBS :    
      MASS LIBS :    

     Parallel version (MPI), running on     2 processors
     R & G space division:  proc/nbgrp/npool/nimage =       2
     Waiting for input...
     Reading input from standard input

     Current dimensions of program PWSCF are:
     Max number of different atomic species (ntypx) = 10
     Max number of k-points (npk) =  40000
     Max angular momentum in pseudopotentials (lmaxx) =  3
               file N.pbe-kjpaw.UPF: wavefunction(s)  2P renormalized

     gamma-point specific algorithms are used

     Subspace diagonalization in iterative solution of the eigenvalue problem:
     a serial algorithm will be used

 
     Parallelization info
     --------------------
     sticks:   dense  smooth     PW     G-vecs:    dense   smooth      PW
     Min        1224    1224    303                45523    45523    5681
     Max        1225    1225    306                45524    45524    5682
     Sum        2449    2449    609                91047    91047   11363
 


     bravais-lattice index     =            1
     lattice parameter (alat)  =      16.0000  a.u.
     unit-cell volume          =    4096.0000 (a.u.)^3
     number of atoms/cell      =            5
     number of atomic types    =            2
     number of electrons       =         8.00
     number of Kohn-Sham states=            8
     kinetic-energy cutoff     =      30.0000  Ry
     charge density cutoff     =     120.0000  Ry
     convergence threshold     =      1.0E-07
     mixing beta               =       0.7000
     number of iterations used =            8  plain     mixing
     Exchange-correlation      =  SLA  PW   PBX  PBC ( 1  4  3  4 0 0)
     nstep                     =           50

     Assuming isolated system, Martyna-Tuckerman method


     celldm(1)=  16.000000  celldm(2)=   0.000000  celldm(3)=   0.000000
     celldm(4)=   0.000000  celldm(5)=   0.000000  celldm(6)=   0.000000

     crystal axes: (cart. coord. in units of alat)
               a(1) = (   1.000000   0.000000   0.000000 )  
               a(2) = (   0.000000   1.000000   0.000000 )  
               a(3) = (   0.000000   0.000000   1.000000 )  

     reciprocal axes: (cart. coord. in units 2 pi/alat)
               b(1) = (  1.000000  0.000000  0.000000 )  
               b(2) = (  0.000000  1.000000  0.000000 )  
               b(3) = (  0.000000  0.000000  1.000000 )  


     PseudoPot. # 1 for  N read from file:
     /home/nvarini/espresso_hdf5/espresso/pseudo/N.pbe-kjpaw.UPF
     MD5 check sum: 784def1e20c8513c628b118ec611e520
     Pseudo is Projector augmented-wave + core cor, Zval =  5.0
     Generated using "atomic" code by A. Dal Corso  (Quantum ESPRESSO distribution)
     Shape of augmentation charge: BESSEL
     Using radial grid of 1085 points,  4 beta functions with: 
                l(1) =   0
                l(2) =   0
                l(3) =   1
                l(4) =   1
     Q(r) pseudized with 0 coefficients 


     PseudoPot. # 2 for  H read from file:
     /home/nvarini/espresso_hdf5/espresso/pseudo/H.pbe-kjpaw.UPF
     MD5 check sum: b6732a8c2b51919c45a22ac3ed50cb01
     Pseudo is Projector augmented-wave, Zval =  1.0
     Generated using "atomic" code by A. Dal Corso (espresso distribution)
     Shape of augmentation charge: PSQ
     Using radial grid of  929 points,  2 beta functions with: 
                l(1) =   0
                l(2) =   0
     Q(r) pseudized with 0 coefficients 


     atomic species   valence    mass     pseudopotential
        N              5.00     1.00000      N( 1.00)
        H              1.00     1.00000      H( 1.00)

     24 Sym. Ops. (no inversion) found



   Cartesian axes

     site n.     atom                  positions (alat units)
         1           N   tau(   1) = (   0.0000000   0.0000000   0.0000000  )
         2           H   tau(   2) = (   0.0625000   0.0625000   0.0625000  )
         3           H   tau(   3) = (  -0.0625000  -0.0625000   0.0625000  )
         4           H   tau(   4) = (  -0.0625000   0.0625000  -0.0625000  )
         5           H   tau(   5) = (   0.0625000  -0.0625000  -0.0625000  )

     number of k points=     1
                       cart. coord. in units 2pi/alat
        k(    1) = (   0.0000000   0.0000000   0.0000000), wk =   2.0000000

     Dense  grid:    45524 G-vectors     FFT dimensions: (  60,  60,  60)

     Estimated max dynamical RAM per process >      20.71Mb

     Estimated total allocated dynamical RAM >      41.42Mb

     Check: negative/imaginary core charge=   -0.000003    0.000000

     Initial potential from superposition of free atoms
     Check: negative starting charge=   -0.004479

     starting charge    8.99996, renormalised to    8.00000

     negative rho (up, down):  3.982E-03 0.000E+00
     Starting wfc are    8 randomized atomic wfcs
     Checking if some PAW data can be deallocated... 

     total cpu time spent up to now is        0.8 secs

     per-process dynamical memory:    20.4 Mb

     Self-consistent Calculation

     iteration #  1     ecut=    30.00 Ry     beta=0.70
     Davidson diagonalization with overlap
     ethr =  1.00E-02,  avg # of iterations =  3.0

     negative rho (up, down):  1.063E-02 0.000E+00

     total cpu time spent up to now is        1.0 secs

     total energy              =     -31.58448709 Ry
     Harris-Foulkes estimate   =     -33.29684104 Ry
     estimated scf accuracy    <       2.33185378 Ry

     iteration #  2     ecut=    30.00 Ry     beta=0.70
     Davidson diagonalization with overlap
     ethr =  1.00E-02,  avg # of iterations =  3.0

     negative rho (up, down):  1.499E-02 0.000E+00

     total cpu time spent up to now is        1.2 secs

     total energy              =     -32.20803014 Ry
     Harris-Foulkes estimate   =     -32.59334762 Ry
     estimated scf accuracy    <       0.72647145 Ry

     iteration #  3     ecut=    30.00 Ry     beta=0.70
     Davidson diagonalization with overlap
     ethr =  9.08E-03,  avg # of iterations =  2.0

     negative rho (up, down):  2.370E-02 0.000E+00

     total cpu time spent up to now is        1.5 secs

     total energy              =     -32.34051124 Ry
     Harris-Foulkes estimate   =     -32.34771857 Ry
     estimated scf accuracy    <       0.01413847 Ry

     iteration #  4     ecut=    30.00 Ry     beta=0.70
     Davidson diagonalization with overlap
     ethr =  1.77E-04,  avg # of iterations =  5.0

     negative rho (up, down):  2.046E-02 0.000E+00

     total cpu time spent up to now is        1.7 secs

     total energy              =     -32.34494219 Ry
     Harris-Foulkes estimate   =     -32.34611044 Ry
     estimated scf accuracy    <       0.00246140 Ry

     iteration #  5     ecut=    30.00 Ry     beta=0.70
     Davidson diagonalization with overlap
     ethr =  3.08E-05,  avg # of iterations =  3.0

     negative rho (up, down):  2.075E-02 0.000E+00

     total cpu time spent up to now is        1.9 secs

     total energy              =     -32.34506473 Ry
     Harris-Foulkes estimate   =     -32.34507484 Ry
     estimated scf accuracy    <       0.00003968 Ry

     iteration #  6     ecut=    30.00 Ry     beta=0.70
     Davidson diagonalization with overlap
     ethr =  4.96E-07,  avg # of iterations =  3.0

     negative rho (up, down):  2.094E-02 0.000E+00

     total cpu time spent up to now is        2.1 secs

     total energy              =     -32.34507153 Ry
     Harris-Foulkes estimate   =     -32.34509981 Ry
     estimated scf accuracy    <       0.00006855 Ry

     iteration #  7     ecut=    30.00 Ry     beta=0.70
     Davidson diagonalization with overlap
     ethr =  4.96E-07,  avg # of iterations =  2.0

     negative rho (up, down):  2.095E-02 0.000E+00

     total cpu time spent up to now is        2.3 secs

     total energy              =     -32.34507626 Ry
     Harris-Foulkes estimate   =     -32.34507660 Ry
     estimated scf accuracy    <       0.00000104 Ry

     iteration #  8     ecut=    30.00 Ry     beta=0.70
     Davidson diagonalization with overlap
     ethr =  1.29E-08,  avg # of iterations =  2.0

     negative rho (up, down):  2.096E-02 0.000E+00

     total cpu time spent up to now is        2.6 secs

     total energy              =     -32.34507633 Ry
     Harris-Foulkes estimate   =     -32.34507637 Ry
     estimated scf accuracy    <       0.00000011 Ry

     iteration #  9     ecut=    30.00 Ry     beta=0.70
     Davidson diagonalization with overlap
     ethr =  1.38E-09,  avg # of iterations =  2.0

     negative rho (up, down):  2.095E-02 0.000E+00

     total cpu time spent up to now is        2.8 secs

     End of self-consistent calculation

          k = 0.0000 0.0000 0.0000 (  5682 PWs)   bands (ev):

   -33.6589 -22.4017 -22.4017 -22.4017  -6.6386  -4.2201  -4.2201  -4.2201

     highest occupied, lowest unoccupied level (ev):   -22.4017   -6.6386

!    total energy              =     -32.34507636 Ry
     Harris-Foulkes estimate   =     -32.34507636 Ry
     estimated scf accuracy    <          8.7E-09 Ry

     total all-electron energy =      -113.643878 Ry

     The total energy is the sum of the following terms:

     one-electron contribution =     -82.06421706 Ry
     hartree contribution      =      38.91295954 Ry
     xc contribution           =      -8.21192101 Ry
     ewald contribution        =      27.33665145 Ry
     one-center paw contrib.   =      -8.31854927 Ry

     convergence has been achieved in   9 iterations

     negative rho (up, down):  2.095E-02 0.000E+00

     Forces acting on atoms (Ry/au):

     atom    1 type  1   force =     0.00000000    0.00000000    0.00000000
     atom    2 type  2   force =     0.15442778    0.15442778    0.15442778
     atom    3 type  2   force =    -0.15442778   -0.15442778    0.15442778
     atom    4 type  2   force =    -0.15442778    0.15442778   -0.15442778
     atom    5 type  2   force =     0.15442778   -0.15442778   -0.15442778

     Total force =     0.534954     Total SCF correction =     0.000046

     BFGS Geometry Optimization

     number of scf cycles    =   1
     number of bfgs steps    =   0

     energy   new            =     -32.3450763570 Ry

     new trust radius        =       0.2674767697 bohr
     new conv_thr            =       0.0000001000 Ry


ATOMIC_POSITIONS (bohr)
N        0.000000000   0.000000000   0.000000000    0   0   0
H        1.154427785   1.154427785   1.154427785
H       -1.154427785  -1.154427785   1.154427785
H       -1.154427785   1.154427785  -1.154427785
H        1.154427785  -1.154427785  -1.154427785



     Writing output data file NH4+.save
     Check: negative starting charge=   -0.004479
     NEW-OLD atomic charge density approx. for the potential

     Check: negative/imaginary core charge=   -0.000003    0.000000
     Check: negative starting charge=   -0.004240

     negative rho (up, down):  1.242E-02 0.000E+00

     total cpu time spent up to now is        3.2 secs

     per-process dynamical memory:    45.1 Mb

     Self-consistent Calculation

     iteration #  1     ecut=    30.00 Ry     beta=0.70
     Davidson diagonalization with overlap
     ethr =  1.00E-06,  avg # of iterations = 13.0

     negative rho (up, down):  1.313E-02 0.000E+00

     total cpu time spent up to now is        3.5 secs

     total energy              =     -32.40857756 Ry
     Harris-Foulkes estimate   =     -32.47418235 Ry
     estimated scf accuracy    <       0.10165877 Ry

     iteration #  2     ecut=    30.00 Ry     beta=0.70
     Davidson diagonalization with overlap
     ethr =  1.27E-03,  avg # of iterations =  2.0

     negative rho (up, down):  1.345E-02 0.000E+00

     total cpu time spent up to now is        3.8 secs

     total energy              =     -32.43489338 Ry
     Harris-Foulkes estimate   =     -32.46874794 Ry
     estimated scf accuracy    <       0.06835530 Ry

     iteration #  3     ecut=    30.00 Ry     beta=0.70
     Davidson diagonalization with overlap
     ethr =  8.54E-04,  avg # of iterations =  1.0

     negative rho (up, down):  1.484E-02 0.000E+00

     total cpu time spent up to now is        4.0 secs

     total energy              =     -32.44806882 Ry
     Harris-Foulkes estimate   =     -32.44798498 Ry
     estimated scf accuracy    <       0.00033731 Ry

     iteration #  4     ecut=    30.00 Ry     beta=0.70
     Davidson diagonalization with overlap
     ethr =  4.22E-06,  avg # of iterations =  3.0

     negative rho (up, down):  1.486E-02 0.000E+00

     total cpu time spent up to now is        4.2 secs

     total energy              =     -32.44840632 Ry
     Harris-Foulkes estimate   =     -32.44842260 Ry
     estimated scf accuracy    <       0.00008239 Ry

     iteration #  5     ecut=    30.00 Ry     beta=0.70
     Davidson diagonalization with overlap
     ethr =  1.03E-06,  avg # of iterations =  1.0

     negative rho (up, down):  1.491E-02 0.000E+00

     total cpu time spent up to now is        4.4 secs

     total energy              =     -32.44840083 Ry
     Harris-Foulkes estimate   =     -32.44840874 Ry
     estimated scf accuracy    <       0.00002602 Ry

     iteration #  6     ecut=    30.00 Ry     beta=0.70
     Davidson diagonalization with overlap
     ethr =  3.25E-07,  avg # of iterations =  1.0

     negative rho (up, down):  1.490E-02 0.000E+00

     total cpu time spent up to now is        4.6 secs

     End of self-consistent calculation

          k = 0.0000 0.0000 0.0000 (  5682 PWs)   bands (ev):

   -31.2458 -20.5848 -20.5848 -20.5848  -7.2066  -4.9856  -4.9856  -4.9856

     highest occupied, lowest unoccupied level (ev):   -20.5848   -7.2066

!    total energy              =     -32.44840395 Ry
     Harris-Foulkes estimate   =     -32.44840393 Ry
     estimated scf accuracy    <       0.00000003 Ry

     total all-electron energy =      -113.747205 Ry

     The total energy is the sum of the following terms:

     one-electron contribution =     -76.45866445 Ry
     hartree contribution      =      36.37879833 Ry
     xc contribution           =      -7.74622283 Ry
     ewald contribution        =      23.67982805 Ry
     one-center paw contrib.   =      -8.30214305 Ry

     convergence has been achieved in   6 iterations

     negative rho (up, down):  1.490E-02 0.000E+00

     Forces acting on atoms (Ry/au):

     atom    1 type  1   force =     0.00000000    0.00000000    0.00000000
     atom    2 type  2   force =    -0.01929951   -0.01929951   -0.01929951
     atom    3 type  2   force =     0.01929951    0.01929951   -0.01929951
     atom    4 type  2   force =     0.01929951   -0.01929951    0.01929951
     atom    5 type  2   force =    -0.01929951    0.01929951    0.01929951

     Total force =     0.066855     Total SCF correction =     0.000015

     number of scf cycles    =   2
     number of bfgs steps    =   1

     energy   old            =     -32.3450763570 Ry
     energy   new            =     -32.4484039463 Ry

     CASE: energy  _new < energy  _old

     new trust radius        =       0.0297142123 bohr
     new conv_thr            =       0.0000000193 Ry


ATOMIC_POSITIONS (bohr)
N        0.000000000   0.000000000   0.000000000    0   0   0
H        1.137272277   1.137272277   1.137272277
H       -1.137272277  -1.137272277   1.137272277
H       -1.137272277   1.137272277  -1.137272277
H        1.137272277  -1.137272277  -1.137272277



     Writing output data file NH4+.save
     Check: negative starting charge=   -0.004240
     NEW-OLD atomic charge density approx. for the potential

     Check: negative/imaginary core charge=   -0.000003    0.000000
     Check: negative starting charge=   -0.004328

     negative rho (up, down):  1.570E-02 0.000E+00

     total cpu time spent up to now is        5.0 secs

     per-process dynamical memory:    45.1 Mb

     Self-consistent Calculation

     iteration #  1     ecut=    30.00 Ry     beta=0.70
     Davidson diagonalization with overlap
     ethr =  1.00E-06,  avg # of iterations =  4.0

     negative rho (up, down):  1.555E-02 0.000E+00

     total cpu time spent up to now is        5.3 secs

     total energy              =     -32.45076026 Ry
     Harris-Foulkes estimate   =     -32.45122522 Ry
     estimated scf accuracy    <       0.00078492 Ry

     iteration #  2     ecut=    30.00 Ry     beta=0.70
     Davidson diagonalization with overlap
     ethr =  9.81E-06,  avg # of iterations =  2.0

     negative rho (up, down):  1.556E-02 0.000E+00

     total cpu time spent up to now is        5.5 secs

     total energy              =     -32.45095583 Ry
     Harris-Foulkes estimate   =     -32.45119047 Ry
     estimated scf accuracy    <       0.00046885 Ry

     iteration #  3     ecut=    30.00 Ry     beta=0.70
     Davidson diagonalization with overlap
     ethr =  5.86E-06,  avg # of iterations =  2.0

     negative rho (up, down):  1.557E-02 0.000E+00

     total cpu time spent up to now is        5.7 secs

     total energy              =     -32.45105117 Ry
     Harris-Foulkes estimate   =     -32.45105013 Ry
     estimated scf accuracy    <       0.00000381 Ry

     iteration #  4     ecut=    30.00 Ry     beta=0.70
     Davidson diagonalization with overlap
     ethr =  4.76E-08,  avg # of iterations =  2.0

     negative rho (up, down):  1.556E-02 0.000E+00

     total cpu time spent up to now is        5.9 secs

     total energy              =     -32.45105201 Ry
     Harris-Foulkes estimate   =     -32.45105203 Ry
     estimated scf accuracy    <       0.00000011 Ry

     iteration #  5     ecut=    30.00 Ry     beta=0.70
     Davidson diagonalization with overlap
     ethr =  1.37E-09,  avg # of iterations =  2.0

     negative rho (up, down):  1.556E-02 0.000E+00

     total cpu time spent up to now is        6.1 secs

     total energy              =     -32.45105203 Ry
     Harris-Foulkes estimate   =     -32.45105203 Ry
     estimated scf accuracy    <       0.00000004 Ry

     iteration #  6     ecut=    30.00 Ry     beta=0.70
     Davidson diagonalization with overlap
     ethr =  4.78E-10,  avg # of iterations =  1.0

     negative rho (up, down):  1.556E-02 0.000E+00

     total cpu time spent up to now is        6.3 secs

     End of self-consistent calculation

          k = 0.0000 0.0000 0.0000 (  5682 PWs)   bands (ev):

   -31.4923 -20.7729 -20.7729 -20.7729  -7.1238  -4.8755  -4.8755  -4.8755

     highest occupied, lowest unoccupied level (ev):   -20.7729   -7.1238

!    total energy              =     -32.45105203 Ry
     Harris-Foulkes estimate   =     -32.45105203 Ry
     estimated scf accuracy    <          6.1E-09 Ry

     total all-electron energy =      -113.749853 Ry

     The total energy is the sum of the following terms:

     one-electron contribution =     -77.02555710 Ry
     hartree contribution      =      36.63334950 Ry
     xc contribution           =      -7.79245693 Ry
     ewald contribution        =      24.03703318 Ry
     one-center paw contrib.   =      -8.30342068 Ry

     convergence has been achieved in   6 iterations

     negative rho (up, down):  1.556E-02 0.000E+00

     Forces acting on atoms (Ry/au):

     atom    1 type  1   force =     0.00000000    0.00000000    0.00000000
     atom    2 type  2   force =    -0.00625216   -0.00625216   -0.00625216
     atom    3 type  2   force =     0.00625216    0.00625216   -0.00625216
     atom    4 type  2   force =     0.00625216   -0.00625216    0.00625216
     atom    5 type  2   force =    -0.00625216    0.00625216    0.00625216

     Total force =     0.021658     Total SCF correction =     0.000010

     number of scf cycles    =   3
     number of bfgs steps    =   2

     energy   old            =     -32.4484039463 Ry
     energy   new            =     -32.4510520270 Ry

     CASE: energy  _new < energy  _old

     new trust radius        =       0.0142387482 bohr
     new conv_thr            =       0.0000000063 Ry


ATOMIC_POSITIONS (bohr)
N        0.000000000   0.000000000   0.000000000    0   0   0
H        1.129051531   1.129051531   1.129051531
H       -1.129051531  -1.129051531   1.129051531
H       -1.129051531   1.129051531  -1.129051531
H        1.129051531  -1.129051531  -1.129051531



     Writing output data file NH4+.save
     Check: negative starting charge=   -0.004328
     NEW-OLD atomic charge density approx. for the potential

     Check: negative/imaginary core charge=   -0.000003    0.000000
     Check: negative starting charge=   -0.004390

     negative rho (up, down):  1.596E-02 0.000E+00

     total cpu time spent up to now is        6.8 secs

     per-process dynamical memory:    45.1 Mb

     Self-consistent Calculation

     iteration #  1     ecut=    30.00 Ry     beta=0.70
     Davidson diagonalization with overlap
     ethr =  1.00E-06,  avg # of iterations =  4.0

     negative rho (up, down):  1.593E-02 0.000E+00

     total cpu time spent up to now is        7.0 secs

     total energy              =     -32.45127269 Ry
     Harris-Foulkes estimate   =     -32.45138458 Ry
     estimated scf accuracy    <       0.00018933 Ry

     iteration #  2     ecut=    30.00 Ry     beta=0.70
     Davidson diagonalization with overlap
     ethr =  2.37E-06,  avg # of iterations =  2.0

     negative rho (up, down):  1.594E-02 0.000E+00

     total cpu time spent up to now is        7.2 secs

     total energy              =     -32.45131980 Ry
     Harris-Foulkes estimate   =     -32.45137406 Ry
     estimated scf accuracy    <       0.00010745 Ry

     iteration #  3     ecut=    30.00 Ry     beta=0.70
     Davidson diagonalization with overlap
     ethr =  1.34E-06,  avg # of iterations =  2.0

     negative rho (up, down):  1.594E-02 0.000E+00

     total cpu time spent up to now is        7.4 secs

     total energy              =     -32.45134181 Ry
     Harris-Foulkes estimate   =     -32.45134164 Ry
     estimated scf accuracy    <       0.00000091 Ry

     iteration #  4     ecut=    30.00 Ry     beta=0.70
     Davidson diagonalization with overlap
     ethr =  1.14E-08,  avg # of iterations =  2.0

     negative rho (up, down):  1.593E-02 0.000E+00

     total cpu time spent up to now is        7.6 secs

     total energy              =     -32.45134202 Ry
     Harris-Foulkes estimate   =     -32.45134202 Ry
     estimated scf accuracy    <       0.00000002 Ry

     iteration #  5     ecut=    30.00 Ry     beta=0.70
     Davidson diagonalization with overlap
     ethr =  2.68E-10,  avg # of iterations =  2.0

     negative rho (up, down):  1.593E-02 0.000E+00

     total cpu time spent up to now is        7.8 secs

     total energy              =     -32.45134203 Ry
     Harris-Foulkes estimate   =     -32.45134203 Ry
     estimated scf accuracy    <          8.8E-09 Ry

     iteration #  6     ecut=    30.00 Ry     beta=0.70
     Davidson diagonalization with overlap
     ethr =  1.10E-10,  avg # of iterations =  2.0

     negative rho (up, down):  1.593E-02 0.000E+00

     total cpu time spent up to now is        8.0 secs

     End of self-consistent calculation

          k = 0.0000 0.0000 0.0000 (  5682 PWs)   bands (ev):

   -31.6121 -20.8639 -20.8639 -20.8639  -7.0850  -4.8229  -4.8229  -4.8229

     highest occupied, lowest unoccupied level (ev):   -20.8639   -7.0850

!    total energy              =     -32.45134203 Ry
     Harris-Foulkes estimate   =     -32.45134203 Ry
     estimated scf accuracy    <          3.9E-09 Ry

     total all-electron energy =      -113.750143 Ry

     The total energy is the sum of the following terms:

     one-electron contribution =     -77.30180496 Ry
     hartree contribution      =      36.75758675 Ry
     xc contribution           =      -7.81510100 Ry
     ewald contribution        =      24.21204939 Ry
     one-center paw contrib.   =      -8.30407222 Ry

     convergence has been achieved in   6 iterations

     negative rho (up, down):  1.593E-02 0.000E+00

     Forces acting on atoms (Ry/au):

     atom    1 type  1   force =     0.00000000    0.00000000    0.00000000
     atom    2 type  2   force =     0.00041975    0.00041975    0.00041975
     atom    3 type  2   force =    -0.00041975   -0.00041975    0.00041975
     atom    4 type  2   force =    -0.00041975    0.00041975   -0.00041975
     atom    5 type  2   force =     0.00041975   -0.00041975   -0.00041975

     Total force =     0.001454     Total SCF correction =     0.000005

     number of scf cycles    =   4
     number of bfgs steps    =   3

     energy   old            =     -32.4510520270 Ry
     energy   new            =     -32.4513420282 Ry

     CASE: energy  _new < energy  _old

     new trust radius        =       0.0008957980 bohr
     new conv_thr            =       0.0000000010 Ry


ATOMIC_POSITIONS (bohr)
N        0.000000000   0.000000000   0.000000000    0   0   0
H        1.129568721   1.129568721   1.129568721
H       -1.129568721  -1.129568721   1.129568721
H       -1.129568721   1.129568721  -1.129568721
H        1.129568721  -1.129568721  -1.129568721



     Writing output data file NH4+.save
     Check: negative starting charge=   -0.004390
     NEW-OLD atomic charge density approx. for the potential

     Check: negative/imaginary core charge=   -0.000003    0.000000
     Check: negative starting charge=   -0.004386

     negative rho (up, down):  1.591E-02 0.000E+00

     total cpu time spent up to now is        8.5 secs

     per-process dynamical memory:    45.1 Mb

     Self-consistent Calculation

     iteration #  1     ecut=    30.00 Ry     beta=0.70
     Davidson diagonalization with overlap
     ethr =  1.00E-06,  avg # of iterations =  2.0

     Threshold (ethr) on eigenvalues was too large:
     Diagonalizing with lowered threshold

     Davidson diagonalization with overlap
     ethr =  8.49E-09,  avg # of iterations =  1.0

     negative rho (up, down):  1.591E-02 0.000E+00

     total cpu time spent up to now is        8.8 secs

     total energy              =     -32.45134305 Ry
     Harris-Foulkes estimate   =     -32.45134366 Ry
     estimated scf accuracy    <       0.00000073 Ry

     iteration #  2     ecut=    30.00 Ry     beta=0.70
     Davidson diagonalization with overlap
     ethr =  9.09E-09,  avg # of iterations =  2.0

     negative rho (up, down):  1.591E-02 0.000E+00

     total cpu time spent up to now is        9.0 secs

     total energy              =     -32.45134323 Ry
     Harris-Foulkes estimate   =     -32.45134343 Ry
     estimated scf accuracy    <       0.00000039 Ry

     iteration #  3     ecut=    30.00 Ry     beta=0.70
     Davidson diagonalization with overlap
     ethr =  4.90E-09,  avg # of iterations =  2.0

     negative rho (up, down):  1.591E-02 0.000E+00

     total cpu time spent up to now is        9.2 secs

     total energy              =     -32.45134332 Ry
     Harris-Foulkes estimate   =     -32.45134331 Ry
     estimated scf accuracy    <          3.8E-09 Ry

     iteration #  4     ecut=    30.00 Ry     beta=0.70
     Davidson diagonalization with overlap
     ethr =  4.75E-11,  avg # of iterations =  2.0

     negative rho (up, down):  1.591E-02 0.000E+00

     total cpu time spent up to now is        9.4 secs

     End of self-consistent calculation

          k = 0.0000 0.0000 0.0000 (  5682 PWs)   bands (ev):

   -31.6043 -20.8579 -20.8579 -20.8579  -7.0874  -4.8262  -4.8262  -4.8262

     highest occupied, lowest unoccupied level (ev):   -20.8579   -7.0874

!    total energy              =     -32.45134332 Ry
     Harris-Foulkes estimate   =     -32.45134332 Ry
     estimated scf accuracy    <          6.1E-11 Ry

     total all-electron energy =      -113.750145 Ry

     The total energy is the sum of the following terms:

     one-electron contribution =     -77.28433246 Ry
     hartree contribution      =      36.74971903 Ry
     xc contribution           =      -7.81366202 Ry
     ewald contribution        =      24.20096356 Ry
     one-center paw contrib.   =      -8.30403143 Ry

     convergence has been achieved in   4 iterations

     negative rho (up, down):  1.591E-02 0.000E+00

     Forces acting on atoms (Ry/au):

     atom    1 type  1   force =     0.00000000    0.00000000    0.00000000
     atom    2 type  2   force =    -0.00000777   -0.00000777   -0.00000777
     atom    3 type  2   force =     0.00000777    0.00000777   -0.00000777
     atom    4 type  2   force =     0.00000777   -0.00000777    0.00000777
     atom    5 type  2   force =    -0.00000777    0.00000777    0.00000777

     Total force =     0.000027     Total SCF correction =     0.000001

     bfgs converged in   5 scf cycles and   4 bfgs steps
     (criteria: energy <  1.0E-04, force <  1.0E-03)

     End of BFGS Geometry Optimization

     Final energy   =     -32.4513433162 Ry
Begin final coordinates

ATOMIC_POSITIONS (bohr)
N        0.000000000   0.000000000   0.000000000    0   0   0
H        1.129568721   1.129568721   1.129568721
H       -1.129568721  -1.129568721   1.129568721
H       -1.129568721   1.129568721  -1.129568721
H        1.129568721  -1.129568721  -1.129568721
End final coordinates



     Writing output data file NH4+.save
 
     init_run     :      0.48s CPU      0.49s WALL (       1 calls)
     electrons    :      6.79s CPU      6.85s WALL (       5 calls)
     update_pot   :      0.73s CPU      0.73s WALL (       4 calls)
     forces       :      0.67s CPU      0.67s WALL (       5 calls)

     Called by init_run:
     wfcinit      :      0.01s CPU      0.02s WALL (       1 calls)
     potinit      :      0.15s CPU      0.15s WALL (       1 calls)

     Called by electrons:
     c_bands      :      1.40s CPU      1.42s WALL (      32 calls)
     sum_band     :      0.99s CPU      1.00s WALL (      32 calls)
     v_of_rho     :      2.47s CPU      2.48s WALL (      36 calls)
     newd         :      0.48s CPU      0.48s WALL (      36 calls)
     PAW_pot      :      1.99s CPU      1.99s WALL (      40 calls)
     mix_rho      :      0.15s CPU      0.16s WALL (      32 calls)

     Called by c_bands:
     init_us_2    :      0.07s CPU      0.07s WALL (      69 calls)
     regterg      :      1.33s CPU      1.34s WALL (      32 calls)

     Called by sum_band:
     sum_band:bec :      0.00s CPU      0.00s WALL (      36 calls)
     addusdens    :      0.59s CPU      0.60s WALL (      32 calls)

     Called by *egterg:
     h_psi        :      1.16s CPU      1.17s WALL (     115 calls)
     s_psi        :      0.02s CPU      0.02s WALL (     115 calls)
     g_psi        :      0.02s CPU      0.02s WALL (      82 calls)
     rdiaghg      :      0.02s CPU      0.02s WALL (     109 calls)

     Called by h_psi:
     h_psi:pot    :      1.16s CPU      1.17s WALL (     115 calls)
     h_psi:calbec :      0.03s CPU      0.02s WALL (     115 calls)
     add_vuspsi   :      0.02s CPU      0.02s WALL (     115 calls)

     General routines
     calbec       :      0.04s CPU      0.04s WALL (     171 calls)
     fft          :      1.10s CPU      1.10s WALL (     530 calls)
     fftw         :      1.14s CPU      1.15s WALL (     912 calls)
 
     Parallel routines
     fft_scatter  :      0.59s CPU      0.58s WALL (    1442 calls)
 
     PWSCF        :     9.48s CPU         9.60s WALL

 
   This run was terminated on:  14:44: 5  23Aug2016            

=------------------------------------------------------------------------------=
   JOB DONE.
=------------------------------------------------------------------------------=
