
     Program PWSCF v.5.4.0 (svn rev. 12590M) starts on 21Jul2016 at 15:42: 3 

     This program is part of the open-source Quantum ESPRESSO suite
     for quantum simulation of materials; please cite
         "P. Giannozzi et al., J. Phys.:Condens. Matter 21 395502 (2009);
          URL http://www.quantum-espresso.org", 
     in publications or presentations arising from this work. More details at
     http://www.quantum-espresso.org/quote
 
           HOST :    x86_64-pc-linux-gnu
           ARCH :    x86_64
             CC :    icc
            CPP :    cpp
            F90 :    gfortran
            F77 :    gfortran
         DFLAGS :    -D__GFORTRAN -D__STD_F95 -D__DFTI -D__MPI -D__PARA -D__HDF5
      BLAS LIBS :    -lmkl_gf_lp64  -lmkl_sequential -lmkl_core
    LAPACK LIBS :    
       FFT LIBS :    
      MASS LIBS :    

     Parallel version (MPI), running on     2 processors
     R & G space division:  proc/nbgrp/npool/nimage =       2
     Waiting for input...
     Reading input from standard input
     Message from routine read_cards :
     DEPRECATED: no units specified in ATOMIC_POSITIONS card
     Message from routine read_cards :
     ATOMIC_POSITIONS: units set to alat

     Current dimensions of program PWSCF are:
     Max number of different atomic species (ntypx) = 10
     Max number of k-points (npk) =  40000
     Max angular momentum in pseudopotentials (lmaxx) =  3

     IMPORTANT: XC functional enforced from input :
     Exchange-correlation      = HSE ( 1  4 12  4 0 0)
     EXX-fraction              =        0.25
     Any further DFT definition will be discarded
     Please, verify this is what you really want


     Subspace diagonalization in iterative solution of the eigenvalue problem:
     a serial algorithm will be used

     EXX: setup a grid of 256 q-points centered on each k-point
     (k+q)-points:
   0.1250000   0.1250000   0.1250000         1    1
  -0.1250000   0.3750000  -0.1250000         2   11
  -0.3750000   0.6250000  -0.3750000        10   11
   0.3750000  -0.1250000   0.3750000         5   -7
   0.3750000   0.3750000   0.3750000         9    1
   0.1250000   0.6250000   0.1250000         3    9
  -0.1250000   0.8750000  -0.1250000         4   11
   0.6250000   0.1250000   0.6250000         8    5
  -0.3750000  -0.3750000  -0.3750000         9   -1
  -0.6250000  -0.1250000  -0.6250000         8   -5
   0.1250000  -0.8750000   0.1250000         4  -11
  -0.1250000  -0.6250000  -0.1250000         3   -9
  -0.1250000  -0.1250000  -0.1250000         1   -1
  -0.3750000   0.1250000  -0.3750000         5    7
   0.3750000  -0.6250000   0.3750000        10  -11
   0.1250000  -0.3750000   0.1250000         2  -11
  -0.1250000  -0.1250000   0.3750000         2    2
  -0.3750000   0.1250000   0.1250000         2   -8
  -0.6250000   0.3750000  -0.1250000         6   17
   0.1250000  -0.3750000   0.6250000         6   -3
   0.1250000   0.1250000   0.6250000         3    1
  -0.1250000   0.3750000   0.3750000         5   -4
  -0.3750000   0.6250000   0.1250000         6  -12
   0.3750000  -0.1250000   0.8750000         7  -16
  -0.6250000  -0.6250000  -0.1250000         8   -9
   0.1250000   0.6250000   0.6250000         8    1
  -0.1250000   0.8750000   0.3750000         7  -21
  -0.3750000  -0.8750000   0.1250000         7   10
  -0.3750000  -0.3750000   0.1250000         5   10
  -0.6250000  -0.1250000  -0.1250000         3   -5
  -0.8750000   0.1250000  -0.3750000         7    7
  -0.1250000  -0.6250000   0.3750000         6   24
  -0.3750000  -0.3750000   0.6250000        10    2
  -0.6250000  -0.1250000   0.3750000         6    6
  -0.8750000   0.1250000   0.1250000         4   -8
   0.8750000   0.3750000  -0.1250000         7  -20
  -0.1250000  -0.1250000   0.8750000         4    2
  -0.3750000   0.1250000   0.6250000         6  -15
  -0.6250000   0.3750000   0.3750000        10   -8
   0.1250000  -0.3750000  -0.8750000         7    4
   0.1250000   0.1250000  -0.8750000         4   -2
  -0.1250000   0.3750000   0.8750000         7   -4
   0.6250000  -0.3750000  -0.3750000        10    8
   0.3750000  -0.1250000  -0.6250000         6   15
   0.3750000   0.3750000  -0.6250000        10   -2
  -0.8750000  -0.3750000   0.1250000         7   20
   0.8750000  -0.1250000  -0.1250000         4    8
   0.6250000   0.1250000  -0.3750000         6   -6
   0.3750000   0.3750000  -0.1250000         5  -10
   0.1250000   0.6250000  -0.3750000         6  -24
   0.8750000  -0.1250000   0.3750000         7   -7
   0.6250000   0.1250000   0.1250000         3    5
   0.6250000   0.6250000   0.1250000         8    9
   0.3750000   0.8750000  -0.1250000         7  -10
   0.1250000  -0.8750000  -0.3750000         7   21
  -0.1250000  -0.6250000  -0.6250000         8   -1
  -0.1250000  -0.1250000  -0.6250000         3   -1
  -0.3750000   0.1250000  -0.8750000         7   16
   0.3750000  -0.6250000  -0.1250000         6   12
   0.1250000  -0.3750000  -0.3750000         5    4
   0.1250000   0.1250000  -0.3750000         2   -2
  -0.1250000   0.3750000  -0.6250000         6    3
   0.6250000  -0.3750000   0.1250000         6  -17
   0.3750000  -0.1250000  -0.1250000         2    8
   0.1250000   0.1250000   0.3750000         2    1
  -0.1250000   0.3750000   0.1250000         2  -12
  -0.3750000   0.6250000  -0.1250000         6   11
   0.3750000  -0.1250000   0.6250000         6  -16
   0.3750000   0.3750000   0.6250000        10    1
   0.1250000   0.6250000   0.3750000         6   22
  -0.1250000   0.8750000   0.1250000         4  -12
  -0.3750000  -0.8750000  -0.1250000         7   -9
  -0.3750000  -0.3750000  -0.1250000         5   -9
  -0.6250000  -0.1250000  -0.3750000         6   -5
   0.1250000  -0.8750000   0.3750000         7  -23
  -0.1250000  -0.6250000   0.1250000         3   10
  -0.1250000  -0.1250000   0.1250000         1    2
  -0.3750000   0.1250000  -0.1250000         2    7
  -0.6250000   0.3750000  -0.3750000        10    7
   0.1250000  -0.3750000   0.3750000         5   -3
  -0.1250000  -0.1250000   0.6250000         3    2
  -0.3750000   0.1250000   0.3750000         5   -8
  -0.6250000   0.3750000   0.1250000         6  -19
   0.1250000  -0.3750000   0.8750000         7   -3
   0.1250000   0.1250000   0.8750000         4    1
  -0.1250000   0.3750000   0.6250000         6   -4
  -0.3750000   0.6250000   0.3750000        10  -12
   0.3750000  -0.1250000  -0.8750000         7   15
  -0.6250000  -0.6250000   0.1250000         8   10
  -0.8750000  -0.3750000  -0.1250000         7  -18
   0.8750000  -0.1250000  -0.3750000         7    8
   0.6250000   0.1250000  -0.6250000         8   -6
  -0.3750000  -0.3750000   0.3750000         9    2
  -0.6250000  -0.1250000   0.1250000         3    6
  -0.8750000   0.1250000  -0.1250000         4    7
  -0.1250000  -0.6250000   0.6250000         8    2
   0.6250000   0.6250000  -0.1250000         8  -10
  -0.6250000  -0.1250000   0.6250000         8    6
  -0.8750000   0.1250000   0.3750000         7   -8
   0.8750000   0.3750000   0.1250000         7   18
  -0.1250000  -0.1250000  -0.8750000         4   -1
  -0.3750000   0.1250000   0.8750000         7  -15
   0.3750000  -0.6250000  -0.3750000        10   12
   0.1250000  -0.3750000  -0.6250000         6    4
   0.1250000   0.1250000  -0.6250000         3   -2
  -0.1250000   0.3750000  -0.8750000         7    3
   0.6250000  -0.3750000  -0.1250000         6   19
   0.3750000  -0.1250000  -0.3750000         5    8
   0.3750000   0.3750000  -0.3750000         9   -2
   0.1250000   0.6250000  -0.6250000         8   -2
   0.8750000  -0.1250000   0.1250000         4   -7
   0.6250000   0.1250000  -0.1250000         3   -6
   0.3750000   0.3750000   0.1250000         5    9
   0.1250000   0.6250000  -0.1250000         3  -10
  -0.1250000   0.8750000  -0.3750000         7   23
   0.6250000   0.1250000   0.3750000         6    5
  -0.3750000  -0.3750000  -0.6250000        10   -1
   0.3750000   0.8750000   0.1250000         7    9
   0.1250000  -0.8750000  -0.1250000         4   12
  -0.1250000  -0.6250000  -0.3750000         6  -22
  -0.1250000  -0.1250000  -0.3750000         2   -1
  -0.3750000   0.1250000  -0.6250000         6   16
   0.3750000  -0.6250000   0.1250000         6  -11
   0.1250000  -0.3750000  -0.1250000         2   12
   0.1250000   0.1250000  -0.1250000         1   -2
  -0.1250000   0.3750000  -0.3750000         5    3
   0.6250000  -0.3750000   0.3750000        10   -7
   0.3750000  -0.1250000   0.1250000         2   -7
   0.1250000   0.3750000   0.3750000         5    1
  -0.1250000   0.6250000   0.1250000         3  -12
  -0.3750000   0.8750000  -0.1250000         7   11
   0.3750000   0.1250000   0.6250000         6   14
  -0.6250000  -0.3750000  -0.3750000        10   -5
   0.1250000   0.8750000   0.3750000         7   22
  -0.1250000  -0.8750000   0.1250000         4   10
  -0.3750000  -0.6250000  -0.1250000         6   -9
  -0.3750000  -0.1250000  -0.1250000         2   -5
  -0.6250000   0.1250000  -0.3750000         6    7
   0.1250000  -0.6250000   0.3750000         6  -23
  -0.1250000  -0.3750000   0.1250000         2   10
  -0.1250000   0.1250000   0.1250000         1   -4
  -0.3750000   0.3750000  -0.1250000         5   11
   0.3750000  -0.3750000   0.6250000        10   -3
   0.1250000  -0.1250000   0.3750000         2   -3
  -0.1250000   0.1250000   0.6250000         3   -4
  -0.3750000   0.3750000   0.3750000         9   -4
  -0.6250000   0.6250000   0.1250000         8  -12
   0.1250000  -0.1250000   0.8750000         4   -3
   0.1250000   0.3750000   0.8750000         7    1
  -0.1250000   0.6250000   0.6250000         8   -4
   0.6250000  -0.1250000  -0.6250000         8    8
   0.3750000   0.1250000  -0.8750000         7  -13
  -0.6250000  -0.3750000   0.1250000         6   20
  -0.8750000  -0.1250000  -0.1250000         4   -5
   0.8750000   0.1250000  -0.3750000         7   -6
  -0.3750000  -0.6250000   0.3750000        10   10
  -0.3750000  -0.1250000   0.3750000         5    6
  -0.6250000   0.1250000   0.1250000         3   -8
  -0.8750000   0.3750000  -0.1250000         7   17
  -0.1250000  -0.3750000   0.6250000         6    2
  -0.3750000  -0.1250000   0.8750000         7   13
  -0.6250000   0.1250000   0.6250000         8   -8
   0.1250000  -0.6250000  -0.6250000         8    4
  -0.1250000  -0.3750000  -0.8750000         7   -1
  -0.1250000   0.1250000  -0.8750000         4    3
   0.6250000  -0.6250000  -0.1250000         8   12
   0.3750000  -0.3750000  -0.3750000         9    4
   0.1250000  -0.1250000  -0.6250000         3    4
   0.1250000   0.3750000  -0.6250000         6   -2
   0.8750000  -0.3750000   0.1250000         7  -17
   0.6250000  -0.1250000  -0.1250000         3    8
   0.3750000   0.1250000  -0.3750000         5   -6
   0.3750000   0.6250000  -0.3750000        10  -10
  -0.8750000  -0.1250000   0.3750000         7    6
   0.8750000   0.1250000   0.1250000         4    5
   0.6250000   0.3750000  -0.1250000         6  -20
   0.3750000   0.6250000   0.1250000         6    9
   0.1250000   0.8750000  -0.1250000         4  -10
  -0.1250000  -0.8750000  -0.3750000         7  -22
   0.6250000   0.3750000   0.3750000        10    5
  -0.3750000  -0.1250000  -0.6250000         6  -14
   0.3750000  -0.8750000   0.1250000         7  -11
   0.1250000  -0.6250000  -0.1250000         3   12
  -0.1250000  -0.3750000  -0.3750000         5   -1
  -0.1250000   0.1250000  -0.3750000         2    3
  -0.3750000   0.3750000  -0.6250000        10    3
   0.3750000  -0.3750000   0.1250000         5  -11
   0.1250000  -0.1250000  -0.1250000         1    4
   0.1250000   0.3750000  -0.1250000         2  -10
  -0.1250000   0.6250000  -0.3750000         6   23
   0.6250000  -0.1250000   0.3750000         6   -7
   0.3750000   0.1250000   0.1250000         2    5
   0.1250000   0.3750000   0.6250000         6    1
  -0.1250000   0.6250000   0.3750000         6  -21
  -0.3750000   0.8750000   0.1250000         7  -12
   0.3750000   0.1250000   0.8750000         7   14
  -0.6250000  -0.3750000  -0.1250000         6  -18
  -0.8750000  -0.1250000  -0.3750000         7   -5
  -0.1250000  -0.8750000   0.3750000         7   24
  -0.3750000  -0.6250000   0.1250000         6   10
  -0.3750000  -0.1250000   0.1250000         2    6
  -0.6250000   0.1250000  -0.1250000         3    7
   0.1250000  -0.6250000   0.6250000         8   -3
  -0.1250000  -0.3750000   0.3750000         5    2
  -0.1250000   0.1250000   0.3750000         2   -4
  -0.3750000   0.3750000   0.1250000         5  -12
  -0.6250000   0.6250000  -0.1250000         8   11
   0.1250000  -0.1250000   0.6250000         3   -3
  -0.1250000   0.1250000   0.8750000         4   -4
  -0.3750000   0.3750000   0.6250000        10   -4
   0.3750000  -0.3750000  -0.6250000        10    4
   0.1250000  -0.1250000  -0.8750000         4    4
   0.1250000   0.3750000  -0.8750000         7   -2
   0.8750000  -0.3750000  -0.1250000         7   19
   0.6250000  -0.1250000  -0.3750000         6    8
   0.3750000   0.1250000  -0.6250000         6  -13
  -0.6250000  -0.3750000   0.3750000        10    6
  -0.8750000  -0.1250000   0.1250000         4    6
   0.8750000   0.1250000  -0.1250000         4   -6
   0.6250000   0.3750000  -0.3750000        10   -6
  -0.3750000  -0.1250000   0.6250000         6   13
  -0.6250000   0.1250000   0.3750000         6   -8
  -0.8750000   0.3750000   0.1250000         7  -19
  -0.1250000  -0.3750000   0.8750000         7    2
  -0.3750000  -0.1250000  -0.8750000         7  -14
   0.3750000  -0.8750000  -0.1250000         7   12
   0.1250000  -0.6250000  -0.3750000         6   21
  -0.1250000  -0.3750000  -0.6250000         6   -1
  -0.1250000   0.1250000  -0.6250000         3    3
   0.6250000  -0.6250000   0.1250000         8  -11
   0.3750000  -0.3750000  -0.1250000         5   12
   0.1250000  -0.1250000  -0.3750000         2    4
   0.1250000   0.3750000  -0.3750000         5   -2
  -0.1250000   0.6250000  -0.6250000         8    3
   0.6250000  -0.1250000   0.1250000         3   -7
   0.3750000   0.1250000  -0.1250000         2   -6
   0.3750000   0.6250000  -0.1250000         6  -10
   0.1250000   0.8750000  -0.3750000         7  -24
   0.8750000   0.1250000   0.3750000         7    5
   0.6250000   0.3750000   0.1250000         6   18
   0.3750000   0.6250000   0.3750000        10    9
   0.1250000   0.8750000   0.1250000         4    9
  -0.1250000  -0.8750000  -0.1250000         4   -9
  -0.3750000  -0.6250000  -0.3750000        10   -9
  -0.3750000  -0.1250000  -0.3750000         5   -5
  -0.6250000   0.1250000  -0.6250000         8    7
   0.1250000  -0.6250000   0.1250000         3  -11
  -0.1250000  -0.3750000  -0.1250000         2   -9
  -0.1250000   0.1250000  -0.1250000         1    3
  -0.3750000   0.3750000  -0.3750000         9    3
   0.3750000  -0.3750000   0.3750000         9   -3
   0.1250000  -0.1250000   0.1250000         1   -3
   0.1250000   0.3750000   0.1250000         2    9
  -0.1250000   0.6250000  -0.1250000         3   11
   0.6250000  -0.1250000   0.6250000         8   -7
   0.3750000   0.1250000   0.3750000         5    5
 
     Parallelization info
     --------------------
     sticks:   dense  smooth     PW     G-vecs:    dense   smooth      PW
     Min          81      81     30                  728      728     153
     Max          82      82     31                  731      731     154
     Sum         163     163     61                 1459     1459     307
 


     bravais-lattice index     =            2
     lattice parameter (alat)  =      10.2000  a.u.
     unit-cell volume          =     265.3020 (a.u.)^3
     number of atoms/cell      =            2
     number of atomic types    =            1
     number of electrons       =         8.00
     number of Kohn-Sham states=            8
     kinetic-energy cutoff     =      12.0000  Ry
     charge density cutoff     =      48.0000  Ry
     cutoff for Fock operator  =      48.0000  Ry
     convergence threshold     =      1.0E-06
     mixing beta               =       0.7000
     number of iterations used =            8  plain     mixing
     Exchange-correlation      = HSE ( 1  4 12  4 0 0)
     EXX-fraction              =        0.25

     celldm(1)=  10.200000  celldm(2)=   0.000000  celldm(3)=   0.000000
     celldm(4)=   0.000000  celldm(5)=   0.000000  celldm(6)=   0.000000

     crystal axes: (cart. coord. in units of alat)
               a(1) = (  -0.500000   0.000000   0.500000 )  
               a(2) = (   0.000000   0.500000   0.500000 )  
               a(3) = (  -0.500000   0.500000   0.000000 )  

     reciprocal axes: (cart. coord. in units 2 pi/alat)
               b(1) = ( -1.000000 -1.000000  1.000000 )  
               b(2) = (  1.000000  1.000000  1.000000 )  
               b(3) = ( -1.000000  1.000000 -1.000000 )  


     PseudoPot. # 1 for Si read from file:
     /home/nvarini/espresso_hdf5/espresso/pseudo/Si.pz-vbc.UPF
     MD5 check sum: 6dfa03ddd5817404712e03e4d12deb78
     Pseudo is Norm-conserving, Zval =  4.0
     Generated by new atomic code, or converted to UPF format
     Using radial grid of  431 points,  2 beta functions with: 
                l(1) =   0
                l(2) =   1

     atomic species   valence    mass     pseudopotential
        Si             4.00    28.08600     Si( 1.00)

     24 Sym. Ops. (no inversion) found
          (note: 24 additional sym.ops. were found but ignored
           their fractional translations are incommensurate with FFT grid)


   Cartesian axes

     site n.     atom                  positions (alat units)
         1           Si  tau(   1) = (   0.0000000   0.0000000   0.0000000  )
         2           Si  tau(   2) = (   0.2500000   0.2500000   0.2500000  )

     number of k points=    10
                       cart. coord. in units 2pi/alat
        k(    1) = (   0.1250000   0.1250000   0.1250000), wk =   0.0625000
        k(    2) = (   0.1250000   0.1250000   0.3750000), wk =   0.1875000
        k(    3) = (   0.1250000   0.1250000   0.6250000), wk =   0.1875000
        k(    4) = (   0.1250000   0.1250000   0.8750000), wk =   0.1875000
        k(    5) = (   0.1250000   0.3750000   0.3750000), wk =   0.1875000
        k(    6) = (   0.1250000   0.3750000   0.6250000), wk =   0.3750000
        k(    7) = (   0.1250000   0.3750000   0.8750000), wk =   0.3750000
        k(    8) = (   0.1250000   0.6250000   0.6250000), wk =   0.1875000
        k(    9) = (   0.3750000   0.3750000   0.3750000), wk =   0.0625000
        k(   10) = (   0.3750000   0.3750000   0.6250000), wk =   0.1875000

     Dense  grid:     1459 G-vectors     FFT dimensions: (  15,  15,  15)

     Largest allocated arrays     est. size (Mb)     dimensions
        Kohn-Sham Wavefunctions         0.01 Mb     (      99,    8)
        NL pseudopotentials             0.01 Mb     (      99,    8)
        Each V/rho on FFT grid          0.03 Mb     (    1800)
        Each G-vector array             0.01 Mb     (     728)
        G-vector shells                 0.00 Mb     (      43)
     Largest temporary arrays     est. size (Mb)     dimensions
        Auxiliary wavefunctions         0.05 Mb     (      99,   32)
        Each subspace H/S matrix        0.02 Mb     (      32,   32)
        Each <psi_i|beta_j> matrix      0.00 Mb     (       8,    8)
        Arrays for rho mixing           0.22 Mb     (    1800,    8)

     Initial potential from superposition of free atoms

     starting charge    7.99901, renormalised to    8.00000
     Starting wfc are    8 randomized atomic wfcs

     total cpu time spent up to now is        0.0 secs

     per-process dynamical memory:     1.7 Mb

     Self-consistent Calculation

     iteration #  1     ecut=    12.00 Ry     beta=0.70
     Davidson diagonalization with overlap
     ethr =  1.00E-02,  avg # of iterations =  3.7

     Threshold (ethr) on eigenvalues was too large:
     Diagonalizing with lowered threshold

     Davidson diagonalization with overlap
     ethr =  8.07E-04,  avg # of iterations =  1.0

     total cpu time spent up to now is        0.1 secs

     total energy              =     -15.82340180 Ry
     Harris-Foulkes estimate   =     -15.83974476 Ry
     estimated scf accuracy    <       0.06415505 Ry

     iteration #  2     ecut=    12.00 Ry     beta=0.70
     Davidson diagonalization with overlap
     ethr =  8.02E-04,  avg # of iterations =  1.0

     total cpu time spent up to now is        0.1 secs

     total energy              =     -15.82634547 Ry
     Harris-Foulkes estimate   =     -15.82635432 Ry
     estimated scf accuracy    <       0.00228159 Ry

     iteration #  3     ecut=    12.00 Ry     beta=0.70
     Davidson diagonalization with overlap
     ethr =  2.85E-05,  avg # of iterations =  1.9

     total cpu time spent up to now is        0.1 secs

     total energy              =     -15.82644721 Ry
     Harris-Foulkes estimate   =     -15.82643492 Ry
     estimated scf accuracy    <       0.00004971 Ry

     iteration #  4     ecut=    12.00 Ry     beta=0.70
     Davidson diagonalization with overlap
     ethr =  6.21E-07,  avg # of iterations =  2.3

     total cpu time spent up to now is        0.2 secs

     End of self-consistent calculation

          k = 0.1250 0.1250 0.1250 (   172 PWs)   bands (ev):

    -5.4476   4.7282   5.9961   5.9961   8.9449   9.3568   9.3569  11.1864

          k = 0.1250 0.1250 0.3750 (   180 PWs)   bands (ev):

    -4.9211   3.1160   4.9391   5.0502   8.5385  10.1246  10.8747  11.2285

          k = 0.1250 0.1250 0.6250 (   186 PWs)   bands (ev):

    -3.8637   1.4055   3.5835   4.0275   7.7542   9.3314  12.4143  12.7127

          k = 0.1250 0.1250 0.8750 (   192 PWs)   bands (ev):

    -2.3517  -0.4976   2.7928   3.5449   7.2968   8.3741  14.7162  14.7745

          k = 0.1250 0.3750 0.3750 (   187 PWs)   bands (ev):

    -4.4109   1.6834   3.9583   5.4867   9.1322  10.0722  10.2721  12.7293

          k = 0.1250 0.3750 0.6250 (   188 PWs)   bands (ev):

    -3.4332   0.4714   2.9371   4.3206   9.2854   9.9751  11.4585  12.3758

          k = 0.1250 0.3750 0.8750 (   189 PWs)   bands (ev):

    -2.1680  -0.5990   2.1708   3.2760   8.7959  10.7115  11.7004  13.8811

          k = 0.1250 0.6250 0.6250 (   184 PWs)   bands (ev):

    -2.6946  -0.3359   2.2539   4.3555   8.2625  11.9049  11.9153  13.4108

          k = 0.3750 0.3750 0.3750 (   183 PWs)   bands (ev):

    -3.9476   0.3457   5.1681   5.1681   8.1196   9.8727   9.8727  14.3023

          k = 0.3750 0.3750 0.6250 (   182 PWs)   bands (ev):

    -3.2022  -0.4691   3.9980   4.6816   8.6289   9.9414  10.5367  13.8202

     highest occupied, lowest unoccupied level (ev):     5.9961    7.2968

!    total energy              =     -15.82645315 Ry
     Harris-Foulkes estimate   =     -15.82645294 Ry
     estimated scf accuracy    <       0.00000021 Ry

     convergence has been achieved in   4 iterations

     EXX: now go back to refine exchange calculation

     total cpu time spent up to now is        0.9 secs

     per-process dynamical memory:    31.2 Mb

     Self-consistent Calculation

     iteration #  1     ecut=    12.00 Ry     beta=0.70
     Davidson diagonalization with overlap
     ethr =  6.21E-07,  avg # of iterations =  3.8

     total cpu time spent up to now is       10.3 secs

     total energy              =     -15.83303571 Ry
     Harris-Foulkes estimate   =     -16.67066130 Ry
     estimated scf accuracy    <       0.00007320 Ry

     iteration #  2     ecut=    12.00 Ry     beta=0.70
     Davidson diagonalization with overlap
     ethr =  9.15E-07,  avg # of iterations =  1.0

     total cpu time spent up to now is       15.1 secs

     total energy              =     -15.83303751 Ry
     Harris-Foulkes estimate   =     -16.67065002 Ry
     estimated scf accuracy    <       0.00000458 Ry

     iteration #  3     ecut=    12.00 Ry     beta=0.70
     Davidson diagonalization with overlap
     ethr =  5.72E-08,  avg # of iterations =  1.0

     total cpu time spent up to now is       19.7 secs

     End of self-consistent calculation

          k = 0.1250 0.1250 0.1250 (   172 PWs)   bands (ev):

    -7.1242   4.3342   5.6431   5.6431   9.3448   9.7501   9.7501  11.7420

          k = 0.1250 0.1250 0.3750 (   180 PWs)   bands (ev):

    -6.5353   2.4823   4.4916   4.6790   8.8516  10.6096  11.3724  11.7056

          k = 0.1250 0.1250 0.6250 (   186 PWs)   bands (ev):

    -5.3480   0.5341   3.0210   3.4484   7.9982   9.6824  13.0714  13.3924

          k = 0.1250 0.1250 0.8750 (   192 PWs)   bands (ev):

    -3.6633  -1.5988   2.1284   2.9004   7.5225   8.6413  15.5495  15.6139

          k = 0.1250 0.3750 0.3750 (   187 PWs)   bands (ev):

    -5.9626   0.8487   3.4670   5.0771   9.5325  10.5380  10.6959  13.3556

          k = 0.1250 0.3750 0.6250 (   188 PWs)   bands (ev):

    -4.8746  -0.5123   2.2955   3.8426   9.6379  10.3784  12.0123  13.0147

          k = 0.1250 0.3750 0.8750 (   189 PWs)   bands (ev):

    -3.4626  -1.7088   1.4147   2.6737   9.0943  11.1619  12.3109  14.6388

          k = 0.1250 0.6250 0.6250 (   184 PWs)   bands (ev):

    -4.0484  -1.4209   1.5080   3.8097   8.5739  12.4488  12.5404  14.1263

          k = 0.3750 0.3750 0.3750 (   183 PWs)   bands (ev):

    -5.4392  -0.6669   4.7015   4.7016   8.4687  10.3178  10.3178  14.8783

          k = 0.3750 0.3750 0.6250 (   182 PWs)   bands (ev):

    -4.6232  -1.5707   3.5012   4.1883   8.9801  10.3523  11.0020  14.5247

     highest occupied, lowest unoccupied level (ev):     5.6431    7.5225

!    total energy              =     -15.83303768 Ry
     Harris-Foulkes estimate   =     -16.67065007 Ry
     estimated scf accuracy    <       0.00000003 Ry

     convergence has been achieved in   3 iterations

     total energy              =     -15.83316748 Ry
     Harris-Foulkes estimate   =     -15.83316747 Ry
     est. exchange err (dexx)  =       0.00012980 Ry
     - averaged Fock potential =       1.67849416 Ry
     + Fock energy             =      -0.84101156 Ry

     EXX: now go back to refine exchange calculation

     total cpu time spent up to now is       21.2 secs

     per-process dynamical memory:    31.9 Mb

     Self-consistent Calculation

     iteration #  1     ecut=    12.00 Ry     beta=0.70
     Davidson diagonalization with overlap
     ethr =  5.72E-08,  avg # of iterations =  3.0

     total cpu time spent up to now is       27.8 secs

     total energy              =     -15.83318227 Ry
     Harris-Foulkes estimate   =     -16.67419520 Ry
     estimated scf accuracy    <       0.00000322 Ry

     iteration #  2     ecut=    12.00 Ry     beta=0.70
     Davidson diagonalization with overlap
     ethr =  4.03E-08,  avg # of iterations =  1.0

     total cpu time spent up to now is       32.5 secs

     End of self-consistent calculation

          k = 0.1250 0.1250 0.1250 (   172 PWs)   bands (ev):

    -7.1188   4.3212   5.6217   5.6217   9.3620   9.7652   9.7652  11.7576

          k = 0.1250 0.1250 0.3750 (   180 PWs)   bands (ev):

    -6.5301   2.4773   4.4779   4.6657   8.8648  10.6233  11.3799  11.7113

          k = 0.1250 0.1250 0.6250 (   186 PWs)   bands (ev):

    -5.3442   0.5340   3.0140   3.4386   8.0136   9.6929  13.0762  13.3954

          k = 0.1250 0.1250 0.8750 (   192 PWs)   bands (ev):

    -3.6607  -1.5971   2.1238   2.8913   7.5386   8.6520  15.5519  15.6167

          k = 0.1250 0.3750 0.3750 (   187 PWs)   bands (ev):

    -5.9581   0.8495   3.4589   5.0581   9.5489  10.5514  10.7005  13.3627

          k = 0.1250 0.3750 0.6250 (   188 PWs)   bands (ev):

    -4.8707  -0.5106   2.2929   3.8307   9.6477  10.3874  12.0195  13.0174

          k = 0.1250 0.3750 0.8750 (   189 PWs)   bands (ev):

    -3.4598  -1.7070   1.4158   2.6667   9.1046  11.1647  12.3188  14.6427

          k = 0.1250 0.6250 0.6250 (   184 PWs)   bands (ev):

    -4.0457  -1.4182   1.5094   3.7978   8.5888  12.4499  12.5471  14.1308

          k = 0.3750 0.3750 0.3750 (   183 PWs)   bands (ev):

    -5.4360  -0.6635   4.6857   4.6857   8.4900  10.3283  10.3283  14.8860

          k = 0.3750 0.3750 0.6250 (   182 PWs)   bands (ev):

    -4.6197  -1.5669   3.4926   4.1738   8.9946  10.3612  11.0105  14.5286

     highest occupied, lowest unoccupied level (ev):     5.6217    7.5386

!    total energy              =     -15.83318246 Ry
     Harris-Foulkes estimate   =     -16.67419405 Ry
     estimated scf accuracy    <       0.00000009 Ry

     convergence has been achieved in   2 iterations

     total energy              =     -15.83318455 Ry
     Harris-Foulkes estimate   =     -15.83318457 Ry
     est. exchange err (dexx)  =       0.00000208 Ry
     - averaged Fock potential =       1.68256388 Ry
     + Fock energy             =      -0.84155441 Ry

     EXX: now go back to refine exchange calculation

     total cpu time spent up to now is       33.9 secs

     per-process dynamical memory:    31.9 Mb

     Self-consistent Calculation

     iteration #  1     ecut=    12.00 Ry     beta=0.70
     Davidson diagonalization with overlap
     ethr =  4.03E-08,  avg # of iterations =  1.8

     Threshold (ethr) on eigenvalues was too large:
     Diagonalizing with lowered threshold

     Davidson diagonalization with overlap
     ethr =  9.35E-10,  avg # of iterations =  2.0

     total cpu time spent up to now is       44.1 secs

     End of self-consistent calculation

          k = 0.1250 0.1250 0.1250 (   172 PWs)   bands (ev):

    -7.1185   4.3189   5.6191   5.6191   9.3632   9.7669   9.7669  11.7590

          k = 0.1250 0.1250 0.3750 (   180 PWs)   bands (ev):

    -6.5298   2.4762   4.4762   4.6635   8.8660  10.6248  11.3809  11.7120

          k = 0.1250 0.1250 0.6250 (   186 PWs)   bands (ev):

    -5.3440   0.5334   3.0128   3.4376   8.0152   9.6942  13.0764  13.3957

          k = 0.1250 0.1250 0.8750 (   192 PWs)   bands (ev):

    -3.6607  -1.5974   2.1230   2.8904   7.5402   8.6534  15.5523  15.6167

          k = 0.1250 0.3750 0.3750 (   187 PWs)   bands (ev):

    -5.9579   0.8492   3.4575   5.0557   9.5504  10.5533  10.7008  13.3633

          k = 0.1250 0.3750 0.6250 (   188 PWs)   bands (ev):

    -4.8706  -0.5109   2.2923   3.8288   9.6490  10.3885  12.0203  13.0174

          k = 0.1250 0.3750 0.8750 (   189 PWs)   bands (ev):

    -3.4599  -1.7073   1.4159   2.6656   9.1059  11.1649  12.3196  14.6431

          k = 0.1250 0.6250 0.6250 (   184 PWs)   bands (ev):

    -4.0459  -1.4182   1.5094   3.7964   8.5903  12.4497  12.5479  14.1312

          k = 0.3750 0.3750 0.3750 (   183 PWs)   bands (ev):

    -5.4359  -0.6634   4.6839   4.6839   8.4916  10.3295  10.3295  14.8869

          k = 0.3750 0.3750 0.6250 (   182 PWs)   bands (ev):

    -4.6197  -1.5667   3.4911   4.1720   8.9958  10.3621  11.0118  14.5291

     highest occupied, lowest unoccupied level (ev):     5.6191    7.5402

!    total energy              =     -15.83318477 Ry
     Harris-Foulkes estimate   =     -16.67473921 Ry
     estimated scf accuracy    <       0.00000007 Ry

     convergence has been achieved in   1 iterations

!    total energy              =     -15.83318481 Ry
     Harris-Foulkes estimate   =     -15.83318485 Ry
     est. exchange err (dexx)  =       0.00000004 Ry
     - averaged Fock potential =       1.68319883 Ry
     + Fock energy             =      -0.84164447 Ry

     EXX self-consistency reached

     Writing output data file silicon.save
 
     init_run     :      0.02s CPU      0.02s WALL (       1 calls)
     electrons    :     39.38s CPU     40.44s WALL (       4 calls)

     Called by init_run:
     wfcinit      :      0.01s CPU      0.01s WALL (       1 calls)
     potinit      :      0.00s CPU      0.00s WALL (       1 calls)

     Called by electrons:
     c_bands      :     39.31s CPU     40.37s WALL (      12 calls)
     sum_band     :      0.03s CPU      0.04s WALL (      12 calls)
     v_of_rho     :      0.03s CPU      0.03s WALL (      12 calls)
     mix_rho      :      0.00s CPU      0.00s WALL (      12 calls)

     Called by c_bands:
     init_us_2    :      0.01s CPU      0.01s WALL (     320 calls)
     cegterg      :     39.30s CPU     40.36s WALL (     120 calls)

     Called by sum_band:

     Called by *egterg:
     h_psi        :     39.21s CPU     40.26s WALL (     365 calls)
     g_psi        :      0.00s CPU      0.00s WALL (     235 calls)
     cdiaghg      :      0.07s CPU      0.07s WALL (     305 calls)

     Called by h_psi:
     add_vuspsi   :      0.01s CPU      0.00s WALL (     365 calls)

     General routines
     calbec       :      0.01s CPU      0.01s WALL (     435 calls)
     fft          :      0.00s CPU      0.01s WALL (     129 calls)
     fftw         :      0.15s CPU      0.16s WALL (    5806 calls)
     fftc         :     23.07s CPU     28.10s WALL (  777216 calls)
     fftcw        :      0.09s CPU      0.09s WALL (    3196 calls)
 
     Parallel routines
     fft_scatter  :      9.35s CPU     10.69s WALL (  786347 calls)

     EXX routines
     exx_grid     :      0.00s CPU      0.00s WALL (       1 calls)
     exxinit      :      0.19s CPU      0.21s WALL (       4 calls)
     vexx         :     39.06s CPU     40.10s WALL (     206 calls)
     exxenergy    :      4.69s CPU      4.79s WALL (       7 calls)
 
     PWSCF        :    44.37s CPU        45.56s WALL

 
   This run was terminated on:  15:42:48  21Jul2016            

=------------------------------------------------------------------------------=
   JOB DONE.
=------------------------------------------------------------------------------=
