
     Program PHONON v.6.beta (svn rev. 12834M) starts on 25Aug2016 at 11: 5:35 

     This program is part of the open-source Quantum ESPRESSO suite
     for quantum simulation of materials; please cite
         "P. Giannozzi et al., J. Phys.:Condens. Matter 21 395502 (2009);
          URL http://www.quantum-espresso.org", 
     in publications or presentations arising from this work. More details at
     http://www.quantum-espresso.org/quote
 
           HOST :    x86_64-pc-linux-gnu
           ARCH :    x86_64
             CC :    icc
            CPP :    cpp
            F90 :    ifort
            F77 :    ifort
         DFLAGS :    -D__INTEL -D__FFTW -D__MPI -D__PARA -D__HDF5
      BLAS LIBS :    -lmkl_intel_lp64  -lmkl_sequential -lmkl_core
    LAPACK LIBS :    
       FFT LIBS :    
      MASS LIBS :    

     Parallel version (MPI), running on     2 processors
     R & G space division:  proc/nbgrp/npool/nimage =       2

     Reading data from directory:
     /home/nvarini/espresso_hdf5/espresso/tempdir/platinum.save

   Info: using nr1, nr2, nr3 values from input

   Info: using nr1, nr2, nr3 values from input

     IMPORTANT: XC functional enforced from input :
     Exchange-correlation      =  SLA  PZ   NOGX NOGC ( 1  1  0  0 0 0)
     Any further DFT definition will be discarded
     Please, verify this is what you really want

 
     Parallelization info
     --------------------
     sticks:   dense  smooth     PW     G-vecs:    dense   smooth      PW
     Min         237     111     36                 3426     1114     205
     Max         238     112     37                 3429     1115     206
     Sum         475     223     73                 6855     2229     411
 

     Check: negative/imaginary core charge=   -0.000004    0.000000

     Calculation of q =    0.0000000   0.0000000   0.0000000

                                                                                

     bravais-lattice index     =            2
     lattice parameter (alat)  =       7.4200  a.u.
     unit-cell volume          =     102.1296 (a.u.)^3
     number of atoms/cell      =            1
     number of atomic types    =            1
     kinetic-energy cut-off    =      30.0000  Ry
     charge density cut-off    =     250.0000  Ry
     convergence threshold     =      1.0E-16
     beta                      =       0.7000
     number of iterations used =            4
     Exchange-correlation      =  SLA  PZ   NOGX NOGC ( 1  1  0  0 0 0)
     Non magnetic calculation with spin-orbit

     celldm(1)=    7.42000  celldm(2)=    0.00000  celldm(3)=    0.00000
     celldm(4)=    0.00000  celldm(5)=    0.00000  celldm(6)=    0.00000

     crystal axes: (cart. coord. in units of alat)
               a(1) = ( -0.5000  0.0000  0.5000 )  
               a(2) = (  0.0000  0.5000  0.5000 )  
               a(3) = ( -0.5000  0.5000  0.0000 )  

     reciprocal axes: (cart. coord. in units 2 pi/alat)
               b(1) = ( -1.0000 -1.0000  1.0000 )  
               b(2) = (  1.0000  1.0000  1.0000 )  
               b(3) = ( -1.0000  1.0000 -1.0000 )  


     Atoms inside the unit cell: 

     Cartesian axes

     site n.  atom      mass           positions (alat units)
        1     Pt 195.0780   tau(    1) = (    0.00000    0.00000    0.00000  )

     Computing dynamical matrix for 
                    q = (   0.0000000   0.0000000   0.0000000 )
 
     49 Sym.Ops. (with q -> -q+G )


     G cutoff =  348.6487  (   3429 G-vectors)     FFT grid: ( 27, 27, 27)
     G cutoff =  167.3514  (   1115 G-vectors)  smooth grid: ( 20, 20, 20)

     number of k points=     2  Methfessel-Paxton smearing, width (Ry)=  0.0200
                       cart. coord. in units 2pi/alat
        k(    1) = (  -0.2500000   0.2500000   0.2500000), wk =   0.2500000
        k(    2) = (   0.2500000  -0.2500000   0.7500000), wk =   0.7500000

     PseudoPot. # 1 for Pt read from file:
     /home/nvarini/espresso_hdf5/espresso/pseudo/Pt.rel-pz-n-rrkjus.UPF
     MD5 check sum: 4baafe8ec1942611396c7a5466f52249
     Pseudo is Ultrasoft + core correction, Zval = 10.0
     Generated by new atomic code, or converted to UPF format
     Using radial grid of 1277 points,  6 beta functions with: 
                l(1) =   2
                l(2) =   2
                l(3) =   2
                l(4) =   2
                l(5) =   1
                l(6) =   1
     Q(r) pseudized with 0 coefficients 


     Mode symmetry, O_h (m-3m)  point group:


     Atomic displacements:
     There are   1 irreducible representations

     Representation     1      3 modes -T_1u G_15  G_4-  To be done



     Alpha used in Ewald sum =   2.6000
     PHONON       :     1.49s CPU         1.54s WALL



     Representation #  1 modes #   1  2  3

     Self-consistent Calculation
 
     Pert. #  1: Fermi energy shift (Ry) =     1.3786E-25    -3.1347E-38
     Pert. #  2: Fermi energy shift (Ry) =    -6.8932E-26     1.1755E-38
     Pert. #  3: Fermi energy shift (Ry) =    -1.3786E-25    -6.2693E-38

      iter #   1 total cpu time :     2.0 secs   av.it.:   6.2
      thresh= 1.000E-02 alpha_mix =  0.700 |ddv_scf|^2 =  5.750E-07
 
     Pert. #  1: Fermi energy shift (Ry) =     1.3786E-25    -4.8979E-40
     Pert. #  2: Fermi energy shift (Ry) =    -3.4466E-26    -1.2245E-40
     Pert. #  3: Fermi energy shift (Ry) =     0.0000E+00     0.0000E+00

      iter #   2 total cpu time :     2.5 secs   av.it.:  12.3
      thresh= 7.583E-05 alpha_mix =  0.700 |ddv_scf|^2 =  1.691E-08
 
     Pert. #  1: Fermi energy shift (Ry) =     0.0000E+00     1.2245E-40
     Pert. #  2: Fermi energy shift (Ry) =     6.0315E-26     3.0612E-41
     Pert. #  3: Fermi energy shift (Ry) =     0.0000E+00     0.0000E+00

      iter #   3 total cpu time :     2.9 secs   av.it.:  11.5
      thresh= 1.301E-05 alpha_mix =  0.700 |ddv_scf|^2 =  6.477E-10
 
     Pert. #  1: Fermi energy shift (Ry) =     0.0000E+00    -1.5306E-41
     Pert. #  2: Fermi energy shift (Ry) =    -1.2925E-25     3.0612E-41
     Pert. #  3: Fermi energy shift (Ry) =    -6.8932E-26     0.0000E+00

      iter #   4 total cpu time :     3.6 secs   av.it.:  10.2
      thresh= 2.545E-06 alpha_mix =  0.700 |ddv_scf|^2 =  1.825E-13
 
     Pert. #  1: Fermi energy shift (Ry) =     0.0000E+00     0.0000E+00
     Pert. #  2: Fermi energy shift (Ry) =     6.8932E-26    -6.1224E-41
     Pert. #  3: Fermi energy shift (Ry) =     1.3786E-25     3.0612E-41

      iter #   5 total cpu time :     4.1 secs   av.it.:  11.5
      thresh= 4.272E-08 alpha_mix =  0.700 |ddv_scf|^2 =  2.820E-15
 
     Pert. #  1: Fermi energy shift (Ry) =     1.3786E-25     0.0000E+00
     Pert. #  2: Fermi energy shift (Ry) =     1.6371E-25    -6.1224E-41
     Pert. #  3: Fermi energy shift (Ry) =    -1.3786E-25     3.0612E-41

      iter #   6 total cpu time :     4.5 secs   av.it.:  10.2
      thresh= 5.310E-09 alpha_mix =  0.700 |ddv_scf|^2 =  3.064E-17

     End of self-consistent calculation

     Convergence has been achieved 
 
     Number of q in the star =    1
     List of q in the star:
          1   0.000000000   0.000000000   0.000000000

     Diagonalizing the dynamical matrix

     q = (    0.000000000   0.000000000   0.000000000 ) 

 **************************************************************************
     freq (    1) =       0.179416 [THz] =       5.984658 [cm-1]
     freq (    2) =       0.179416 [THz] =       5.984658 [cm-1]
     freq (    3) =       0.179416 [THz] =       5.984658 [cm-1]
 **************************************************************************

     Mode symmetry, O_h (m-3m)  point group:

     freq (  1 -  3) =          6.0  [cm-1]   --> T_1u G_15  G_4- I  
 
     PHONON       :     4.23s CPU         4.56s WALL

     INITIALIZATION: 
     phq_setup    :      0.01s CPU      0.01s WALL (       1 calls)
     phq_init     :      0.71s CPU      0.71s WALL (       1 calls)
 
     phq_init     :      0.71s CPU      0.71s WALL (       1 calls)
     set_drhoc    :      0.33s CPU      0.33s WALL (       3 calls)
     init_vloc    :      0.00s CPU      0.00s WALL (       1 calls)
     init_us_1    :      0.35s CPU      0.36s WALL (       1 calls)
     newd         :      0.02s CPU      0.02s WALL (       1 calls)
     dvanqq       :      0.13s CPU      0.13s WALL (       1 calls)
     drho         :      0.18s CPU      0.18s WALL (       1 calls)
 
     DYNAMICAL MATRIX:
     dynmat0      :      0.25s CPU      0.25s WALL (       1 calls)
     phqscf       :      2.73s CPU      3.01s WALL (       1 calls)
     dynmatrix    :      0.01s CPU      0.01s WALL (       1 calls)
 
     phqscf       :      2.73s CPU      3.01s WALL (       1 calls)
     solve_linter :      2.72s CPU      3.00s WALL (       1 calls)
     drhodv       :      0.01s CPU      0.01s WALL (       1 calls)
 
     dynmat0      :      0.25s CPU      0.25s WALL (       1 calls)
     dynmat_us    :      0.03s CPU      0.03s WALL (       1 calls)
     d2ionq       :      0.00s CPU      0.00s WALL (       1 calls)
     dynmatcc     :      0.22s CPU      0.22s WALL (       1 calls)
 
     dynmat_us    :      0.03s CPU      0.03s WALL (       1 calls)
     addusdynmat  :      0.01s CPU      0.01s WALL (       1 calls)
 
     phqscf       :      2.73s CPU      3.01s WALL (       1 calls)
     solve_linter :      2.72s CPU      3.00s WALL (       1 calls)
 
     solve_linter :      2.72s CPU      3.00s WALL (       1 calls)
     dvqpsi_us    :      0.05s CPU      0.05s WALL (       6 calls)
     ortho        :      0.01s CPU      0.02s WALL (      36 calls)
     cgsolve      :      1.19s CPU      1.23s WALL (      36 calls)
     incdrhoscf   :      0.09s CPU      0.10s WALL (      36 calls)
     addusddens   :      0.20s CPU      0.20s WALL (       7 calls)
     vpsifft      :      0.07s CPU      0.07s WALL (      30 calls)
     dv_of_drho   :      0.01s CPU      0.01s WALL (      18 calls)
     mix_pot      :      0.02s CPU      0.02s WALL (       6 calls)
     ef_shift     :      0.01s CPU      0.01s WALL (       7 calls)
     localdos     :      0.03s CPU      0.03s WALL (       1 calls)
     psymdvscf    :      0.60s CPU      0.60s WALL (       6 calls)
     newdq        :      0.40s CPU      0.40s WALL (       6 calls)
     adddvscf     :      0.02s CPU      0.01s WALL (      30 calls)
     drhodvus     :      0.00s CPU      0.00s WALL (       1 calls)
 
     dvqpsi_us    :      0.05s CPU      0.05s WALL (       6 calls)
     dvqpsi_us_on :      0.03s CPU      0.03s WALL (       6 calls)
 
     cgsolve      :      1.19s CPU      1.23s WALL (      36 calls)
     ch_psi       :      1.17s CPU      1.20s WALL (     511 calls)
 
     ch_psi       :      1.17s CPU      1.20s WALL (     511 calls)
     last         :      0.12s CPU      0.12s WALL (     511 calls)
 
     add_vuspsi   :      0.04s CPU      0.04s WALL (     511 calls)
 
     incdrhoscf   :      0.09s CPU      0.10s WALL (      36 calls)
 
     drhodvus     :      0.00s CPU      0.00s WALL (       1 calls)
 
      General routines
     calbec       :      0.08s CPU      0.08s WALL (    1146 calls)
     fft          :      0.04s CPU      0.04s WALL (     215 calls)
     ffts         :      0.01s CPU      0.01s WALL (     100 calls)
     fftw         :      0.89s CPU      0.94s WALL (   20556 calls)
     davcio       :      0.01s CPU      0.23s WALL (     182 calls)
     write_rec    :      0.01s CPU      0.02s WALL (       7 calls)
 
 
     PHONON       :     4.23s CPU         4.56s WALL

 
   This run was terminated on:  11: 5:39  25Aug2016            

=------------------------------------------------------------------------------=
   JOB DONE.
=------------------------------------------------------------------------------=
