
     Program PHONON v.5.4.0 (svn rev. 12620M) starts on 28Jul2016 at 11:12: 6 

     This program is part of the open-source Quantum ESPRESSO suite
     for quantum simulation of materials; please cite
         "P. Giannozzi et al., J. Phys.:Condens. Matter 21 395502 (2009);
          URL http://www.quantum-espresso.org", 
     in publications or presentations arising from this work. More details at
     http://www.quantum-espresso.org/quote
 
           HOST :    x86_64-pc-linux-gnu
           ARCH :    x86_64
             CC :    icc
            CPP :    cpp
            F90 :    ifort
            F77 :    ifort
         DFLAGS :    -D__INTEL -D__FFTW -D__MPI -D__PARA -D__HDF5
      BLAS LIBS :    -lmkl_intel_lp64  -lmkl_sequential -lmkl_core
    LAPACK LIBS :    
       FFT LIBS :    
      MASS LIBS :    

     Parallel version (MPI), running on     2 processors
     R & G space division:  proc/nbgrp/npool/nimage =       2

     Reading data from directory:
     /home/nvarini/espresso_hdf5/espresso/tempdir/platinum.save

   Info: using nr1, nr2, nr3 values from input

   Info: using nr1, nr2, nr3 values from input

     IMPORTANT: XC functional enforced from input :
     Exchange-correlation      =  SLA  PZ   NOGX NOGC ( 1  1  0  0 0 0)
     Any further DFT definition will be discarded
     Please, verify this is what you really want

 
     Parallelization info
     --------------------
     sticks:   dense  smooth     PW     G-vecs:    dense   smooth      PW
     Min         237     111     36                 3426     1110     205
     Max         238     112     37                 3429     1119     206
     Sum         475     223     73                 6855     2229     411
 

     Check: negative/imaginary core charge=   -0.000004    0.000000

     Calculation of q =    1.0000000   0.0000000   0.0000000
 
     Parallelization info
     --------------------
     sticks:   dense  smooth     PW     G-vecs:    dense   smooth      PW
     Min         237     111     45                 3426     1111     304
     Max         238     112     46                 3429     1118     305
     Sum         475     223     91                 6855     2229     609
 


     bravais-lattice index     =            2
     lattice parameter (alat)  =       7.4200  a.u.
     unit-cell volume          =     102.1296 (a.u.)^3
     number of atoms/cell      =            1
     number of atomic types    =            1
     number of electrons       =        10.00
     number of Kohn-Sham states=           18
     kinetic-energy cutoff     =      30.0000  Ry
     charge density cutoff     =     250.0000  Ry
     Exchange-correlation      =  SLA  PZ   NOGX NOGC ( 1  1  0  0 0 0)
     Non magnetic calculation with spin-orbit


     celldm(1)=   7.420000  celldm(2)=   0.000000  celldm(3)=   0.000000
     celldm(4)=   0.000000  celldm(5)=   0.000000  celldm(6)=   0.000000

     crystal axes: (cart. coord. in units of alat)
               a(1) = (  -0.500000   0.000000   0.500000 )  
               a(2) = (   0.000000   0.500000   0.500000 )  
               a(3) = (  -0.500000   0.500000   0.000000 )  

     reciprocal axes: (cart. coord. in units 2 pi/alat)
               b(1) = ( -1.000000 -1.000000  1.000000 )  
               b(2) = (  1.000000  1.000000  1.000000 )  
               b(3) = ( -1.000000  1.000000 -1.000000 )  


     PseudoPot. # 1 for Pt read from file:
     /home/nvarini/espresso_hdf5/espresso/pseudo/Pt.rel-pz-n-rrkjus.UPF
     MD5 check sum: 4baafe8ec1942611396c7a5466f52249
     Pseudo is Ultrasoft + core correction, Zval = 10.0
     Generated by new atomic code, or converted to UPF format
     Using radial grid of 1277 points,  6 beta functions with: 
                l(1) =   2
                l(2) =   2
                l(3) =   2
                l(4) =   2
                l(5) =   1
                l(6) =   1
     Q(r) pseudized with 0 coefficients 


     atomic species   valence    mass     pseudopotential
        Pt            10.00   195.07800     Pt( 1.00)

     48 Sym. Ops., with inversion, found



   Cartesian axes

     site n.     atom                  positions (alat units)
         1           Pt  tau(   1) = (   0.0000000   0.0000000   0.0000000  )

     number of k points=     6  Methfessel-Paxton smearing, width (Ry)=  0.0200
                       cart. coord. in units 2pi/alat
        k(    1) = (  -0.2500000   0.2500000   0.2500000), wk =   0.2500000
        k(    2) = (   0.7500000   0.2500000   0.2500000), wk =   0.0000000
        k(    3) = (   0.2500000  -0.2500000   0.7500000), wk =   0.5000000
        k(    4) = (   1.2500000  -0.2500000   0.7500000), wk =   0.0000000
        k(    5) = (   0.7500000   0.2500000  -0.2500000), wk =   0.2500000
        k(    6) = (   1.7500000   0.2500000  -0.2500000), wk =   0.0000000

     Dense  grid:     6855 G-vectors     FFT dimensions: (  27,  27,  27)

     Smooth grid:     2229 G-vectors     FFT dimensions: (  20,  20,  20)

     Largest allocated arrays     est. size (Mb)     dimensions
        Kohn-Sham Wavefunctions         0.08 Mb     (     300,   18)
        NL pseudopotentials             0.06 Mb     (     150,   26)
        Each V/rho on FFT grid          0.16 Mb     (   10206)
        Each G-vector array             0.03 Mb     (    3429)
        G-vector shells                 0.00 Mb     (     119)
     Largest temporary arrays     est. size (Mb)     dimensions
        Auxiliary wavefunctions         0.33 Mb     (     300,   72)
        Each subspace H/S matrix        0.08 Mb     (      72,   72)
        Each <psi_i|beta_j> matrix      0.01 Mb     (      26,   2,   18)

     Check: negative/imaginary core charge=   -0.000004    0.000000

     The potential is recalculated from file :
     /home/nvarini/espresso_hdf5/espresso/tempdir/_ph0/platinum.save/charge-density.hdf5

     Starting wfc are   12 atomic +    6 random wfc

     Band Structure Calculation
     Davidson diagonalization with overlap

     ethr =  1.00E-10,  avg # of iterations = 15.3

     total cpu time spent up to now is        0.9 secs

     End of band structure calculation

          k =-0.2500 0.2500 0.2500 (   289 PWs)   bands (ev):

     9.3170   9.3170  13.3107  13.3107  13.5799  13.5799  14.7744  14.7744
    16.0691  16.0691  16.6624  16.6624  31.1506  31.1506  35.9701  35.9701
    39.8081  39.8081

          k = 0.7500 0.2500 0.2500 (   283 PWs)   bands (ev):

    11.2910  11.2910  12.4161  12.4161  13.9359  13.9359  15.5889  15.5889
    17.8747  17.8747  20.6641  20.6641  25.0087  25.0087  31.6343  31.6343
    33.8373  33.8373

          k = 0.2500-0.2500 0.7500 (   283 PWs)   bands (ev):

    11.2910  11.2910  12.4161  12.4161  13.9359  13.9359  15.5889  15.5889
    17.8747  17.8747  20.6641  20.6641  25.0087  25.0087  31.6343  31.6343
    33.8373  33.8373

          k = 1.2500-0.2500 0.7500 (   283 PWs)   bands (ev):

    11.2910  11.2910  12.4161  12.4161  13.9359  13.9359  15.5889  15.5889
    17.8747  17.8747  20.6641  20.6641  25.0087  25.0087  31.6343  31.6343
    33.8373  33.8373

          k = 0.7500 0.2500-0.2500 (   283 PWs)   bands (ev):

    11.2910  11.2910  12.4161  12.4161  13.9359  13.9359  15.5889  15.5889
    17.8747  17.8747  20.6641  20.6641  25.0087  25.0087  31.6343  31.6343
    33.8373  33.8373

          k = 1.7500 0.2500-0.2500 (   289 PWs)   bands (ev):

     9.3170   9.3170  13.3107  13.3107  13.5799  13.5799  14.7744  14.7744
    16.0691  16.0691  16.6624  16.6624  31.1506  31.1506  35.9701  35.9701
    39.8081  39.8081

     the Fermi energy is    17.9295 ev

     Writing output data file platinum.save

                                                                                

     bravais-lattice index     =            2
     lattice parameter (alat)  =       7.4200  a.u.
     unit-cell volume          =     102.1296 (a.u.)^3
     number of atoms/cell      =            1
     number of atomic types    =            1
     kinetic-energy cut-off    =      30.0000  Ry
     charge density cut-off    =     250.0000  Ry
     convergence threshold     =      1.0E-16
     beta                      =       0.7000
     number of iterations used =            4
     Exchange-correlation      =  SLA  PZ   NOGX NOGC ( 1  1  0  0 0 0)
     Non magnetic calculation with spin-orbit

     celldm(1)=    7.42000  celldm(2)=    0.00000  celldm(3)=    0.00000
     celldm(4)=    0.00000  celldm(5)=    0.00000  celldm(6)=    0.00000

     crystal axes: (cart. coord. in units of alat)
               a(1) = ( -0.5000  0.0000  0.5000 )  
               a(2) = (  0.0000  0.5000  0.5000 )  
               a(3) = ( -0.5000  0.5000  0.0000 )  

     reciprocal axes: (cart. coord. in units 2 pi/alat)
               b(1) = ( -1.0000 -1.0000  1.0000 )  
               b(2) = (  1.0000  1.0000  1.0000 )  
               b(3) = ( -1.0000  1.0000 -1.0000 )  


     Atoms inside the unit cell: 

     Cartesian axes

     site n.  atom      mass           positions (alat units)
        1     Pt 195.0780   tau(    1) = (    0.00000    0.00000    0.00000  )

     Computing dynamical matrix for 
                    q = (   1.0000000   0.0000000   0.0000000 )
 
     17 Sym.Ops. (with q -> -q+G )


     G cutoff =  348.6487  (   3429 G-vectors)     FFT grid: ( 27, 27, 27)
     G cutoff =  167.3514  (   1118 G-vectors)  smooth grid: ( 20, 20, 20)

     number of k points=     6  Methfessel-Paxton smearing, width (Ry)=  0.0200
                       cart. coord. in units 2pi/alat
        k(    1) = (  -0.2500000   0.2500000   0.2500000), wk =   0.2500000
        k(    2) = (   0.7500000   0.2500000   0.2500000), wk =   0.0000000
        k(    3) = (   0.2500000  -0.2500000   0.7500000), wk =   0.5000000
        k(    4) = (   1.2500000  -0.2500000   0.7500000), wk =   0.0000000
        k(    5) = (   0.7500000   0.2500000  -0.2500000), wk =   0.2500000
        k(    6) = (   1.7500000   0.2500000  -0.2500000), wk =   0.0000000

     PseudoPot. # 1 for Pt read from file:
     /home/nvarini/espresso_hdf5/espresso/pseudo/Pt.rel-pz-n-rrkjus.UPF
     MD5 check sum: 4baafe8ec1942611396c7a5466f52249
     Pseudo is Ultrasoft + core correction, Zval = 10.0
     Generated by new atomic code, or converted to UPF format
     Using radial grid of 1277 points,  6 beta functions with: 
                l(1) =   2
                l(2) =   2
                l(3) =   2
                l(4) =   2
                l(5) =   1
                l(6) =   1
     Q(r) pseudized with 0 coefficients 


     Mode symmetry, D_4h(4/mmm) point group:


     Atomic displacements:
     There are   2 irreducible representations

     Representation     1      1 modes -A_2u X_4' M_4'  To be done

     Representation     2      2 modes -E_u  X_5' M_5'  To be done



     Alpha used in Ewald sum =   2.6000
     PHONON       :     2.68s CPU         2.73s WALL



     Representation #  1 mode #   1

     Self-consistent Calculation

      iter #   1 total cpu time :     3.0 secs   av.it.:   8.3
      thresh= 1.000E-02 alpha_mix =  0.700 |ddv_scf|^2 =  4.837E-04

      iter #   2 total cpu time :     3.2 secs   av.it.:  11.0
      thresh= 2.199E-03 alpha_mix =  0.700 |ddv_scf|^2 =  5.208E-04

      iter #   3 total cpu time :     3.4 secs   av.it.:   9.3
      thresh= 2.282E-03 alpha_mix =  0.700 |ddv_scf|^2 =  2.229E-08

      iter #   4 total cpu time :     3.7 secs   av.it.:  10.7
      thresh= 1.493E-05 alpha_mix =  0.700 |ddv_scf|^2 =  1.950E-10

      iter #   5 total cpu time :     3.9 secs   av.it.:   9.7
      thresh= 1.396E-06 alpha_mix =  0.700 |ddv_scf|^2 =  4.736E-12

      iter #   6 total cpu time :     4.1 secs   av.it.:  10.3
      thresh= 2.176E-07 alpha_mix =  0.700 |ddv_scf|^2 =  6.785E-15

      iter #   7 total cpu time :     4.4 secs   av.it.:  10.7
      thresh= 8.237E-09 alpha_mix =  0.700 |ddv_scf|^2 =  3.009E-16

      iter #   8 total cpu time :     4.6 secs   av.it.:   9.7
      thresh= 1.735E-09 alpha_mix =  0.700 |ddv_scf|^2 =  1.401E-18

     End of self-consistent calculation

     Convergence has been achieved 


     Representation #  2 modes #   2  3

     Self-consistent Calculation

      iter #   1 total cpu time :     5.0 secs   av.it.:   7.5
      thresh= 1.000E-02 alpha_mix =  0.700 |ddv_scf|^2 =  7.683E-06

      iter #   2 total cpu time :     5.4 secs   av.it.:  11.5
      thresh= 2.772E-04 alpha_mix =  0.700 |ddv_scf|^2 =  1.051E-06

      iter #   3 total cpu time :     5.9 secs   av.it.:  11.2
      thresh= 1.025E-04 alpha_mix =  0.700 |ddv_scf|^2 =  2.461E-09

      iter #   4 total cpu time :     6.3 secs   av.it.:  11.2
      thresh= 4.961E-06 alpha_mix =  0.700 |ddv_scf|^2 =  4.597E-12

      iter #   5 total cpu time :     6.7 secs   av.it.:  11.0
      thresh= 2.144E-07 alpha_mix =  0.700 |ddv_scf|^2 =  4.694E-14

      iter #   6 total cpu time :     7.1 secs   av.it.:  11.0
      thresh= 2.167E-08 alpha_mix =  0.700 |ddv_scf|^2 =  7.113E-16

      iter #   7 total cpu time :     7.5 secs   av.it.:  10.7
      thresh= 2.667E-09 alpha_mix =  0.700 |ddv_scf|^2 =  5.054E-19

     End of self-consistent calculation

     Convergence has been achieved 
 
     Number of q in the star =    3
     List of q in the star:
          1   1.000000000   0.000000000   0.000000000
          2   0.000000000   0.000000000   1.000000000
          3   0.000000000   1.000000000   0.000000000

     Diagonalizing the dynamical matrix

     q = (    1.000000000   0.000000000   0.000000000 ) 

 **************************************************************************
     freq (    1) =       3.669551 [THz] =     122.403040 [cm-1]
     freq (    2) =       3.669551 [THz] =     122.403040 [cm-1]
     freq (    3) =       5.809174 [THz] =     193.773196 [cm-1]
 **************************************************************************

     Mode symmetry, D_4h(4/mmm) point group:

     freq (  1 -  2) =        122.4  [cm-1]   --> E_u  X_5' M_5'     
     freq (  3 -  3) =        193.8  [cm-1]   --> A_2u X_4' M_4'     
 
     init_run     :      0.44s CPU      0.44s WALL (       1 calls)
     electrons    :      0.47s CPU      0.49s WALL (       1 calls)

     Called by init_run:
     wfcinit      :      0.00s CPU      0.00s WALL (       1 calls)
     potinit      :      0.00s CPU      0.00s WALL (       1 calls)

     Called by electrons:
     c_bands      :      0.47s CPU      0.49s WALL (       1 calls)
     v_of_rho     :      0.00s CPU      0.00s WALL (       2 calls)
     newd         :      0.04s CPU      0.05s WALL (       2 calls)

     Called by c_bands:
     init_us_2    :      0.00s CPU      0.00s WALL (      69 calls)
     cegterg      :      0.43s CPU      0.45s WALL (       6 calls)

     Called by sum_band:

     Called by *egterg:
     h_psi        :      2.13s CPU      2.20s WALL (    1011 calls)
     s_psi        :      0.18s CPU      0.17s WALL (    1984 calls)
     g_psi        :      0.00s CPU      0.00s WALL (      92 calls)
     cdiaghg      :      0.11s CPU      0.11s WALL (      98 calls)

     Called by h_psi:
     add_vuspsi   :      0.08s CPU      0.08s WALL (    1011 calls)

     General routines
     calbec       :      0.15s CPU      0.15s WALL (    2137 calls)
     fft          :      0.05s CPU      0.05s WALL (     221 calls)
     ffts         :      0.01s CPU      0.01s WALL (      73 calls)
     fftw         :      1.92s CPU      1.98s WALL (   41372 calls)
     interpolate  :      0.02s CPU      0.02s WALL (      55 calls)
     davcio       :      0.02s CPU      0.02s WALL (     347 calls)
 
     Parallel routines
     fft_scatter  :      0.46s CPU      0.55s WALL (   41666 calls)
 
     PHONON       :     7.41s CPU         7.57s WALL

     INITIALIZATION: 
     phq_setup    :      0.01s CPU      0.01s WALL (       1 calls)
     phq_init     :      0.90s CPU      0.91s WALL (       1 calls)
 
     phq_init     :      0.90s CPU      0.91s WALL (       1 calls)
     set_drhoc    :      0.34s CPU      0.34s WALL (       3 calls)
     init_vloc    :      0.00s CPU      0.00s WALL (       2 calls)
     init_us_1    :      0.72s CPU      0.72s WALL (       2 calls)
     newd         :      0.04s CPU      0.05s WALL (       2 calls)
     dvanqq       :      0.18s CPU      0.18s WALL (       1 calls)
     drho         :      0.30s CPU      0.31s WALL (       1 calls)
 
     DYNAMICAL MATRIX:
     dynmat0      :      0.27s CPU      0.27s WALL (       1 calls)
     phqscf       :      4.72s CPU      4.84s WALL (       1 calls)
     dynmatrix    :      0.01s CPU      0.01s WALL (       1 calls)
 
     phqscf       :      4.72s CPU      4.84s WALL (       1 calls)
     solve_linter :      4.70s CPU      4.81s WALL (       2 calls)
     drhodv       :      0.01s CPU      0.02s WALL (       2 calls)
 
     dynmat0      :      0.27s CPU      0.27s WALL (       1 calls)
     dynmat_us    :      0.03s CPU      0.03s WALL (       1 calls)
     d2ionq       :      0.00s CPU      0.00s WALL (       1 calls)
     dynmatcc     :      0.23s CPU      0.23s WALL (       1 calls)
 
     dynmat_us    :      0.03s CPU      0.03s WALL (       1 calls)
     addusdynmat  :      0.01s CPU      0.01s WALL (       1 calls)
 
     phqscf       :      4.72s CPU      4.84s WALL (       1 calls)
     solve_linter :      4.70s CPU      4.81s WALL (       2 calls)
 
     solve_linter :      4.70s CPU      4.81s WALL (       2 calls)
     dvqpsi_us    :      0.08s CPU      0.08s WALL (       9 calls)
     ortho        :      0.03s CPU      0.03s WALL (      66 calls)
     cgsolve      :      2.21s CPU      2.28s WALL (      66 calls)
     incdrhoscf   :      0.19s CPU      0.19s WALL (      66 calls)
     addusddens   :      0.71s CPU      0.72s WALL (      17 calls)
     vpsifft      :      0.13s CPU      0.14s WALL (      57 calls)
     dv_of_drho   :      0.02s CPU      0.02s WALL (      22 calls)
     mix_pot      :      0.03s CPU      0.03s WALL (      15 calls)
     psymdvscf    :      0.38s CPU      0.38s WALL (      15 calls)
     newdq        :      0.89s CPU      0.90s WALL (      15 calls)
     adddvscf     :      0.03s CPU      0.03s WALL (      57 calls)
     drhodvus     :      0.00s CPU      0.00s WALL (       2 calls)
 
     dvqpsi_us    :      0.08s CPU      0.08s WALL (       9 calls)
     dvqpsi_us_on :      0.04s CPU      0.04s WALL (       9 calls)
 
     cgsolve      :      2.21s CPU      2.28s WALL (      66 calls)
     ch_psi       :      2.16s CPU      2.23s WALL (     907 calls)
 
     ch_psi       :      2.16s CPU      2.23s WALL (     907 calls)
     last         :      0.22s CPU      0.22s WALL (     907 calls)
 
     add_vuspsi   :      0.08s CPU      0.08s WALL (    1011 calls)
 
     incdrhoscf   :      0.19s CPU      0.19s WALL (      66 calls)
 
     drhodvus     :      0.00s CPU      0.00s WALL (       2 calls)
 
      General routines
     calbec       :      0.15s CPU      0.15s WALL (    2137 calls)
     fft          :      0.05s CPU      0.05s WALL (     221 calls)
     ffts         :      0.01s CPU      0.01s WALL (      73 calls)
     fftw         :      1.92s CPU      1.98s WALL (   41372 calls)
     davcio       :      0.02s CPU      0.02s WALL (     347 calls)
     write_rec    :      0.03s CPU      0.03s WALL (      17 calls)
 
 
     PHONON       :     7.41s CPU         7.57s WALL

 
   This run was terminated on:  11:12:13  28Jul2016            

=------------------------------------------------------------------------------=
   JOB DONE.
=------------------------------------------------------------------------------=
