
     Program PWSCF v.5.4.0 (svn rev. 12590M) starts on 21Jul2016 at 15:35:53 

     This program is part of the open-source Quantum ESPRESSO suite
     for quantum simulation of materials; please cite
         "P. Giannozzi et al., J. Phys.:Condens. Matter 21 395502 (2009);
          URL http://www.quantum-espresso.org", 
     in publications or presentations arising from this work. More details at
     http://www.quantum-espresso.org/quote
 
           HOST :    x86_64-pc-linux-gnu
           ARCH :    x86_64
             CC :    icc
            CPP :    cpp
            F90 :    gfortran
            F77 :    gfortran
         DFLAGS :    -D__GFORTRAN -D__STD_F95 -D__DFTI -D__MPI -D__PARA -D__HDF5
      BLAS LIBS :    -lmkl_gf_lp64  -lmkl_sequential -lmkl_core
    LAPACK LIBS :    
       FFT LIBS :    
      MASS LIBS :    

     Parallel version (MPI), running on     2 processors
     R & G space division:  proc/nbgrp/npool/nimage =       2
     Waiting for input...
     Reading input from standard input
     Message from routine read_cards :
     DEPRECATED: no units specified in ATOMIC_POSITIONS card
     Message from routine read_cards :
     ATOMIC_POSITIONS: units set to alat

     Current dimensions of program PWSCF are:
     Max number of different atomic species (ntypx) = 10
     Max number of k-points (npk) =  40000
     Max angular momentum in pseudopotentials (lmaxx) =  3

     Atomic positions and unit cell read from directory:
     /home/nvarini/espresso_hdf5/espresso/tempdir/cu.save/
 
               file Cu.pz-d-rrkjus.UPF: wavefunction(s)  3D renormalized

     Subspace diagonalization in iterative solution of the eigenvalue problem:
     a serial algorithm will be used

 
     Parallelization info
     --------------------
     sticks:   dense  smooth     PW     G-vecs:    dense   smooth      PW
     Min         237      75     30                 3367      616     165
     Max         238      76     31                 3368      627     166
     Sum         475     151     61                 6735     1243     331
 
     Generating pointlists ...
     new r_m :   0.2917 (alat units)  1.9630 (a.u.) for type    1


     bravais-lattice index     =            2
     lattice parameter (alat)  =       6.7300  a.u.
     unit-cell volume          =      76.2053 (a.u.)^3
     number of atoms/cell      =            1
     number of atomic types    =            1
     number of electrons       =        11.00
     number of Kohn-Sham states=            8
     kinetic-energy cutoff     =      25.0000  Ry
     charge density cutoff     =     300.0000  Ry
     Exchange-correlation      =  SLA  PZ   NOGX NOGC ( 1  1  0  0 0 0)
     Noncollinear calculation without spin-orbit


     celldm(1)=   6.730000  celldm(2)=   0.000000  celldm(3)=   0.000000
     celldm(4)=   0.000000  celldm(5)=   0.000000  celldm(6)=   0.000000

     crystal axes: (cart. coord. in units of alat)
               a(1) = (  -0.500000   0.000000   0.500000 )  
               a(2) = (   0.000000   0.500000   0.500000 )  
               a(3) = (  -0.500000   0.500000   0.000000 )  

     reciprocal axes: (cart. coord. in units 2 pi/alat)
               b(1) = ( -1.000000 -1.000000  1.000000 )  
               b(2) = (  1.000000  1.000000  1.000000 )  
               b(3) = ( -1.000000  1.000000 -1.000000 )  


     PseudoPot. # 1 for Cu read from file:
     /home/nvarini/espresso_hdf5/espresso/pseudo/Cu.pz-d-rrkjus.UPF
     MD5 check sum: fd38ae683e239c95a66f426e1f8e5fc7
     Pseudo is Ultrasoft, Zval = 11.0
     Generated by new atomic code, or converted to UPF format
     Using radial grid of  899 points,  3 beta functions with: 
                l(1) =   2
                l(2) =   2
                l(3) =   1
     Q(r) pseudized with 0 coefficients 


     atomic species   valence    mass     pseudopotential
        Cu            11.00    63.55000     Cu( 1.00)

     16 Sym. Ops., with inversion, found



   Cartesian axes

     site n.     atom                  positions (alat units)
         1           Cu  tau(   1) = (   0.0000000   0.0000000   0.0000000  )

     number of k points=    28
                       cart. coord. in units 2pi/alat
        k(    1) = (   0.0000000   0.0000000   0.0000000), wk =   0.0357143
        k(    2) = (   0.0000000   0.0000000   0.1000000), wk =   0.0357143
        k(    3) = (   0.0000000   0.0000000   0.2000000), wk =   0.0357143
        k(    4) = (   0.0000000   0.0000000   0.3000000), wk =   0.0357143
        k(    5) = (   0.0000000   0.0000000   0.4000000), wk =   0.0357143
        k(    6) = (   0.0000000   0.0000000   0.5000000), wk =   0.0357143
        k(    7) = (   0.0000000   0.0000000   0.6000000), wk =   0.0357143
        k(    8) = (   0.0000000   0.0000000   0.7000000), wk =   0.0357143
        k(    9) = (   0.0000000   0.0000000   0.8000000), wk =   0.0357143
        k(   10) = (   0.0000000   0.0000000   0.9000000), wk =   0.0357143
        k(   11) = (   0.0000000   0.0000000   1.0000000), wk =   0.0357143
        k(   12) = (   0.0000000   0.0000000   0.0000000), wk =   0.0357143
        k(   13) = (   0.0000000   0.1000000   0.1000000), wk =   0.0357143
        k(   14) = (   0.0000000   0.2000000   0.2000000), wk =   0.0357143
        k(   15) = (   0.0000000   0.3000000   0.3000000), wk =   0.0357143
        k(   16) = (   0.0000000   0.4000000   0.4000000), wk =   0.0357143
        k(   17) = (   0.0000000   0.5000000   0.5000000), wk =   0.0357143
        k(   18) = (   0.0000000   0.6000000   0.6000000), wk =   0.0357143
        k(   19) = (   0.0000000   0.7000000   0.7000000), wk =   0.0357143
        k(   20) = (   0.0000000   0.8000000   0.8000000), wk =   0.0357143
        k(   21) = (   0.0000000   0.9000000   0.9000000), wk =   0.0357143
        k(   22) = (   0.0000000   1.0000000   1.0000000), wk =   0.0357143
        k(   23) = (   0.0000000   0.0000000   0.0000000), wk =   0.0357143
        k(   24) = (   0.1000000   0.1000000   0.1000000), wk =   0.0357143
        k(   25) = (   0.2000000   0.2000000   0.2000000), wk =   0.0357143
        k(   26) = (   0.3000000   0.3000000   0.3000000), wk =   0.0357143
        k(   27) = (   0.4000000   0.4000000   0.4000000), wk =   0.0357143
        k(   28) = (   0.5000000   0.5000000   0.5000000), wk =   0.0357143

     Dense  grid:     6735 G-vectors     FFT dimensions: (  27,  27,  27)

     Smooth grid:     1243 G-vectors     FFT dimensions: (  15,  15,  15)

     Largest allocated arrays     est. size (Mb)     dimensions
        Kohn-Sham Wavefunctions         0.02 Mb     (     180,    8)
        NL pseudopotentials             0.02 Mb     (      90,   13)
        Each V/rho on FFT grid          0.16 Mb     (   10206)
        Each G-vector array             0.03 Mb     (    3368)
        G-vector shells                 0.00 Mb     (     118)
     Largest temporary arrays     est. size (Mb)     dimensions
        Auxiliary wavefunctions         0.09 Mb     (     180,   32)
        Each subspace H/S matrix        0.02 Mb     (      32,   32)
        Each <psi_i|beta_j> matrix      0.00 Mb     (      13,   2,    8)

     The potential is recalculated from file :
     /home/nvarini/espresso_hdf5/espresso/tempdir/cu.save/charge-density.hdf5

     Starting wfc are   12 randomized atomic wfcs

     Band Structure Calculation
     Davidson diagonalization with overlap

     ethr =  9.09E-09,  avg # of iterations = 11.1

     total cpu time spent up to now is        1.0 secs

     End of band structure calculation

          k = 0.0000 0.0000 0.0000 (   169 PWs)   bands (ev):

     4.9903   4.9906  11.2117  11.2117  11.2117  11.2118  11.2118  11.2118

          k = 0.0000 0.0000 0.1000 (   169 PWs)   bands (ev):

     5.1159   5.1161  11.1732  11.1733  11.2431  11.2431  11.2432  11.2432

          k = 0.0000 0.0000 0.2000 (   165 PWs)   bands (ev):

     5.4880   5.4882  11.0620  11.0621  11.3363  11.3363  11.3364  11.3364

          k = 0.0000 0.0000 0.3000 (   161 PWs)   bands (ev):

     6.0906   6.0909  10.8907  10.8908  11.4876  11.4876  11.4877  11.4877

          k = 0.0000 0.0000 0.4000 (   161 PWs)   bands (ev):

     6.8876   6.8878  10.6773  10.6774  11.6866  11.6866  11.6895  11.6895

          k = 0.0000 0.0000 0.5000 (   165 PWs)   bands (ev):

     7.7951   7.7953  10.4445  10.4446  11.6421  11.6422  11.9303  11.9303

          k = 0.0000 0.0000 0.6000 (   161 PWs)   bands (ev):

     8.6221   8.6223  10.2155  10.2155  11.8916  11.8917  12.1917  12.1918

          k = 0.0000 0.0000 0.7000 (   162 PWs)   bands (ev):

     9.1075   9.1077  10.0120  10.0121  12.4481  12.4481  12.4482  12.4482

          k = 0.0000 0.0000 0.8000 (   162 PWs)   bands (ev):

     9.2577   9.2579   9.8526   9.8527  12.6394  12.6394  12.6681  12.6682

          k = 0.0000 0.0000 0.9000 (   162 PWs)   bands (ev):

     9.2714   9.2715   9.7513   9.7514  12.6823  12.6824  12.8182  12.8182

          k = 0.0000 0.0000 1.0000 (   150 PWs)   bands (ev):

     9.2659   9.2660   9.7169   9.7169  12.6973  12.6973  12.8718  12.8719

          k = 0.0000 0.0000 0.0000 (   169 PWs)   bands (ev):

     4.9903   4.9906  11.2117  11.2117  11.2117  11.2118  11.2118  11.2118

          k = 0.0000 0.1000 0.1000 (   169 PWs)   bands (ev):

     5.2406   5.2408  11.1526  11.1526  11.2578  11.2579  11.2699  11.2700

          k = 0.0000 0.2000 0.2000 (   163 PWs)   bands (ev):

     5.9707   5.9710  11.0003  11.0004  11.3808  11.3809  11.3904  11.3904

          k = 0.0000 0.3000 0.3000 (   160 PWs)   bands (ev):

     7.1065   7.1067  10.8191  10.8192  11.3769  11.3770  11.5926  11.5927

          k = 0.0000 0.4000 0.4000 (   154 PWs)   bands (ev):

     8.4632   8.4634  10.6900  10.6901  11.1997  11.1998  11.7386  11.7387

          k = 0.0000 0.5000 0.5000 (   164 PWs)   bands (ev):

     9.6305   9.6306  10.6866  10.6867  10.9040  10.9041  11.7534  11.7535

          k = 0.0000 0.6000 0.6000 (   166 PWs)   bands (ev):

    10.1588  10.1590  10.5469  10.5470  10.8641  10.8642  11.8839  11.8839

          k = 0.0000 0.7000 0.7000 (   170 PWs)   bands (ev):

    10.0490  10.0491  10.2430  10.2431  11.2486  11.2487  12.1132  12.1133

          k = 0.0000 0.8000 0.8000 (   170 PWs)   bands (ev):

     9.6835   9.6836   9.9909   9.9910  11.8277  11.8277  12.3845  12.3846

          k = 0.0000 0.9000 0.9000 (   162 PWs)   bands (ev):

     9.3815   9.3816   9.7903   9.7904  12.4981  12.4982  12.6093  12.6094

          k = 0.0000 1.0000 1.0000 (   150 PWs)   bands (ev):

     9.2659   9.2660   9.7169   9.7169  12.6973  12.6973  12.8718  12.8718

          k = 0.0000 0.0000 0.0000 (   169 PWs)   bands (ev):

     4.9903   4.9906  11.2117  11.2117  11.2117  11.2118  11.2118  11.2118

          k = 0.1000 0.1000 0.1000 (   168 PWs)   bands (ev):

     5.3643   5.3645  11.1345  11.1346  11.2817  11.2817  11.2818  11.2818

          k = 0.2000 0.2000 0.2000 (   159 PWs)   bands (ev):

     6.4308   6.4310  10.9837  10.9838  11.3861  11.3861  11.3862  11.3862

          k = 0.3000 0.3000 0.3000 (   153 PWs)   bands (ev):

     7.9099   7.9101  11.0742  11.0744  11.3385  11.3385  11.3386  11.3386

          k = 0.4000 0.4000 0.4000 (   162 PWs)   bands (ev):

     8.9173   8.9175  11.2266  11.2266  11.2267  11.2267  12.1743  12.1745

          k = 0.5000 0.5000 0.5000 (   156 PWs)   bands (ev):

     9.1194   9.1195  11.1771  11.1771  11.1772  11.1772  12.7170  12.7170

     Writing output data file cu.save
 
     init_run     :      0.20s CPU      0.21s WALL (       1 calls)
     electrons    :      0.53s CPU      0.56s WALL (       1 calls)

     Called by init_run:
     wfcinit      :      0.00s CPU      0.00s WALL (       1 calls)
     potinit      :      0.01s CPU      0.01s WALL (       1 calls)

     Called by electrons:
     c_bands      :      0.53s CPU      0.56s WALL (       1 calls)
     v_of_rho     :      0.00s CPU      0.00s WALL (       1 calls)
     newd         :      0.01s CPU      0.01s WALL (       1 calls)

     Called by c_bands:
     init_us_2    :      0.00s CPU      0.00s WALL (      28 calls)
     cegterg      :      0.46s CPU      0.47s WALL (      31 calls)

     Called by sum_band:

     Called by *egterg:
     h_psi        :      0.37s CPU      0.39s WALL (     370 calls)
     s_psi        :      0.01s CPU      0.01s WALL (     370 calls)
     g_psi        :      0.00s CPU      0.00s WALL (     311 calls)
     cdiaghg      :      0.08s CPU      0.08s WALL (     339 calls)

     Called by h_psi:
     add_vuspsi   :      0.01s CPU      0.01s WALL (     370 calls)

     General routines
     calbec       :      0.01s CPU      0.01s WALL (     370 calls)
     fft          :      0.00s CPU      0.00s WALL (      14 calls)
     ffts         :      0.00s CPU      0.00s WALL (       4 calls)
     fftw         :      0.25s CPU      0.27s WALL (    9516 calls)
     interpolate  :      0.00s CPU      0.00s WALL (       4 calls)
     davcio       :      0.00s CPU      0.00s WALL (      28 calls)
 
     Parallel routines
     fft_scatter  :      0.06s CPU      0.08s WALL (    9534 calls)
 
     PWSCF        :     1.06s CPU         1.11s WALL

 
   This run was terminated on:  15:35:54  21Jul2016            

=------------------------------------------------------------------------------=
   JOB DONE.
=------------------------------------------------------------------------------=
