
     Program PWSCF v.5.4.0 (svn rev. 12782M) starts on 18Aug2016 at 16:13: 8 

     This program is part of the open-source Quantum ESPRESSO suite
     for quantum simulation of materials; please cite
         "P. Giannozzi et al., J. Phys.:Condens. Matter 21 395502 (2009);
          URL http://www.quantum-espresso.org", 
     in publications or presentations arising from this work. More details at
     http://www.quantum-espresso.org/quote
 
           HOST :    x86_64-pc-linux-gnu
           ARCH :    x86_64
             CC :    icc
            CPP :    cpp
            F90 :    ifort
            F77 :    ifort
         DFLAGS :    -D__INTEL -D__FFTW -D__MPI -D__PARA -D__HDF5
      BLAS LIBS :    -lmkl_intel_lp64  -lmkl_sequential -lmkl_core
    LAPACK LIBS :    
       FFT LIBS :    
      MASS LIBS :    

     Parallel version (MPI), running on     2 processors
     R & G space division:  proc/nbgrp/npool/nimage =       2
     Waiting for input...
     Reading input from standard input
     Message from routine read_cards :
     DEPRECATED: no units specified in ATOMIC_POSITIONS card
     Message from routine read_cards :
     ATOMIC_POSITIONS: units set to alat

     Current dimensions of program PWSCF are:
     Max number of different atomic species (ntypx) = 10
     Max number of k-points (npk) =  40000
     Max angular momentum in pseudopotentials (lmaxx) =  3

     Atomic positions and unit cell read from directory:
     /home/nvarini/espresso_hdf5/espresso/tempdir/cu.save/
 
               file Cu.pz-d-rrkjus.UPF: wavefunction(s)  3D renormalized

     Subspace diagonalization in iterative solution of the eigenvalue problem:
     a serial algorithm will be used

 
     Parallelization info
     --------------------
     sticks:   dense  smooth     PW     G-vecs:    dense   smooth      PW
     Min         237      75     30                 3367      620     165
     Max         238      76     31                 3368      623     166
     Sum         475     151     61                 6735     1243     331
 


     bravais-lattice index     =            2
     lattice parameter (alat)  =       6.7300  a.u.
     unit-cell volume          =      76.2053 (a.u.)^3
     number of atoms/cell      =            1
     number of atomic types    =            1
     number of electrons       =        11.00
     number of Kohn-Sham states=            8
     kinetic-energy cutoff     =      25.0000  Ry
     charge density cutoff     =     300.0000  Ry
     Exchange-correlation      =  SLA  PZ   NOGX NOGC ( 1  1  0  0 0 0)
     Noncollinear calculation without spin-orbit


     celldm(1)=   6.730000  celldm(2)=   0.000000  celldm(3)=   0.000000
     celldm(4)=   0.000000  celldm(5)=   0.000000  celldm(6)=   0.000000

     crystal axes: (cart. coord. in units of alat)
               a(1) = (  -0.500000   0.000000   0.500000 )  
               a(2) = (   0.000000   0.500000   0.500000 )  
               a(3) = (  -0.500000   0.500000   0.000000 )  

     reciprocal axes: (cart. coord. in units 2 pi/alat)
               b(1) = ( -1.000000 -1.000000  1.000000 )  
               b(2) = (  1.000000  1.000000  1.000000 )  
               b(3) = ( -1.000000  1.000000 -1.000000 )  


     PseudoPot. # 1 for Cu read from file:
     /home/nvarini/espresso_hdf5/espresso/pseudo/Cu.pz-d-rrkjus.UPF
     MD5 check sum: fd38ae683e239c95a66f426e1f8e5fc7
     Pseudo is Ultrasoft, Zval = 11.0
     Generated by new atomic code, or converted to UPF format
     Using radial grid of  899 points,  3 beta functions with: 
                l(1) =   2
                l(2) =   2
                l(3) =   1
     Q(r) pseudized with 0 coefficients 


     atomic species   valence    mass     pseudopotential
        Cu            11.00    63.55000     Cu( 1.00)

     16 Sym. Ops., with inversion, found



   Cartesian axes

     site n.     atom                  positions (alat units)
         1           Cu  tau(   1) = (   0.0000000   0.0000000   0.0000000  )

     number of k points=    28
                       cart. coord. in units 2pi/alat
        k(    1) = (   0.0000000   0.0000000   0.0000000), wk =   0.0357143
        k(    2) = (   0.0000000   0.0000000   0.1000000), wk =   0.0357143
        k(    3) = (   0.0000000   0.0000000   0.2000000), wk =   0.0357143
        k(    4) = (   0.0000000   0.0000000   0.3000000), wk =   0.0357143
        k(    5) = (   0.0000000   0.0000000   0.4000000), wk =   0.0357143
        k(    6) = (   0.0000000   0.0000000   0.5000000), wk =   0.0357143
        k(    7) = (   0.0000000   0.0000000   0.6000000), wk =   0.0357143
        k(    8) = (   0.0000000   0.0000000   0.7000000), wk =   0.0357143
        k(    9) = (   0.0000000   0.0000000   0.8000000), wk =   0.0357143
        k(   10) = (   0.0000000   0.0000000   0.9000000), wk =   0.0357143
        k(   11) = (   0.0000000   0.0000000   1.0000000), wk =   0.0357143
        k(   12) = (   0.0000000   0.0000000   0.0000000), wk =   0.0357143
        k(   13) = (   0.0000000   0.1000000   0.1000000), wk =   0.0357143
        k(   14) = (   0.0000000   0.2000000   0.2000000), wk =   0.0357143
        k(   15) = (   0.0000000   0.3000000   0.3000000), wk =   0.0357143
        k(   16) = (   0.0000000   0.4000000   0.4000000), wk =   0.0357143
        k(   17) = (   0.0000000   0.5000000   0.5000000), wk =   0.0357143
        k(   18) = (   0.0000000   0.6000000   0.6000000), wk =   0.0357143
        k(   19) = (   0.0000000   0.7000000   0.7000000), wk =   0.0357143
        k(   20) = (   0.0000000   0.8000000   0.8000000), wk =   0.0357143
        k(   21) = (   0.0000000   0.9000000   0.9000000), wk =   0.0357143
        k(   22) = (   0.0000000   1.0000000   1.0000000), wk =   0.0357143
        k(   23) = (   0.0000000   0.0000000   0.0000000), wk =   0.0357143
        k(   24) = (   0.1000000   0.1000000   0.1000000), wk =   0.0357143
        k(   25) = (   0.2000000   0.2000000   0.2000000), wk =   0.0357143
        k(   26) = (   0.3000000   0.3000000   0.3000000), wk =   0.0357143
        k(   27) = (   0.4000000   0.4000000   0.4000000), wk =   0.0357143
        k(   28) = (   0.5000000   0.5000000   0.5000000), wk =   0.0357143

     Dense  grid:     6735 G-vectors     FFT dimensions: (  27,  27,  27)

     Smooth grid:     1243 G-vectors     FFT dimensions: (  15,  15,  15)

     Estimated max dynamical RAM per process >       2.70Mb

     Estimated total allocated dynamical RAM >       5.40Mb
     Generating pointlists ...
     new r_m :   0.2917 (alat units)  1.9630 (a.u.) for type    1

     The potential is recalculated from file :
     /home/nvarini/espresso_hdf5/espresso/tempdir/cu.save/charge-density.hdf5

     Starting wfc are   12 randomized atomic wfcs

     Band Structure Calculation
     Davidson diagonalization with overlap

     ethr =  9.09E-09,  avg # of iterations = 10.3

     total cpu time spent up to now is        1.0 secs

     End of band structure calculation

          k = 0.0000 0.0000 0.0000 (   169 PWs)   bands (ev):

     4.9903   4.9906  11.2116  11.2116  11.2116  11.2117  11.2117  11.2117

          k = 0.0000 0.0000 0.1000 (   169 PWs)   bands (ev):

     5.1159   5.1161  11.1731  11.1732  11.2430  11.2430  11.2431  11.2431

          k = 0.0000 0.0000 0.2000 (   165 PWs)   bands (ev):

     5.4880   5.4882  11.0619  11.0620  11.3362  11.3362  11.3363  11.3363

          k = 0.0000 0.0000 0.3000 (   161 PWs)   bands (ev):

     6.0906   6.0909  10.8906  10.8907  11.4875  11.4875  11.4876  11.4876

          k = 0.0000 0.0000 0.4000 (   161 PWs)   bands (ev):

     6.8876   6.8878  10.6772  10.6773  11.6865  11.6865  11.6894  11.6894

          k = 0.0000 0.0000 0.5000 (   165 PWs)   bands (ev):

     7.7951   7.7953  10.4444  10.4445  11.6420  11.6421  11.9301  11.9302

          k = 0.0000 0.0000 0.6000 (   161 PWs)   bands (ev):

     8.6221   8.6223  10.2154  10.2155  11.8915  11.8916  12.1916  12.1916

          k = 0.0000 0.0000 0.7000 (   162 PWs)   bands (ev):

     9.1075   9.1076  10.0119  10.0120  12.4480  12.4480  12.4481  12.4481

          k = 0.0000 0.0000 0.8000 (   162 PWs)   bands (ev):

     9.2577   9.2578   9.8526   9.8527  12.6393  12.6393  12.6680  12.6680

          k = 0.0000 0.0000 0.9000 (   162 PWs)   bands (ev):

     9.2713   9.2715   9.7512   9.7513  12.6822  12.6823  12.8180  12.8181

          k = 0.0000 0.0000 1.0000 (   150 PWs)   bands (ev):

     9.2658   9.2659   9.7168   9.7169  12.6972  12.6972  12.8717  12.8717

          k = 0.0000 0.0000 0.0000 (   169 PWs)   bands (ev):

     4.9903   4.9906  11.2116  11.2116  11.2116  11.2117  11.2117  11.2117

          k = 0.0000 0.1000 0.1000 (   169 PWs)   bands (ev):

     5.2406   5.2408  11.1525  11.1525  11.2577  11.2578  11.2698  11.2699

          k = 0.0000 0.2000 0.2000 (   163 PWs)   bands (ev):

     5.9707   5.9710  11.0002  11.0003  11.3807  11.3808  11.3902  11.3903

          k = 0.0000 0.3000 0.3000 (   160 PWs)   bands (ev):

     7.1065   7.1067  10.8190  10.8191  11.3768  11.3769  11.5925  11.5926

          k = 0.0000 0.4000 0.4000 (   154 PWs)   bands (ev):

     8.4632   8.4634  10.6899  10.6900  11.1996  11.1997  11.7385  11.7386

          k = 0.0000 0.5000 0.5000 (   164 PWs)   bands (ev):

     9.6304   9.6306  10.6865  10.6866  10.9039  10.9040  11.7533  11.7534

          k = 0.0000 0.6000 0.6000 (   166 PWs)   bands (ev):

    10.1588  10.1589  10.5468  10.5469  10.8640  10.8641  11.8838  11.8838

          k = 0.0000 0.7000 0.7000 (   170 PWs)   bands (ev):

    10.0489  10.0490  10.2429  10.2430  11.2485  11.2486  12.1131  12.1132

          k = 0.0000 0.8000 0.8000 (   170 PWs)   bands (ev):

     9.6834   9.6835   9.9909   9.9910  11.8276  11.8277  12.3844  12.3845

          k = 0.0000 0.9000 0.9000 (   162 PWs)   bands (ev):

     9.3814   9.3816   9.7902   9.7903  12.4980  12.4981  12.6092  12.6093

          k = 0.0000 1.0000 1.0000 (   150 PWs)   bands (ev):

     9.2658   9.2659   9.7168   9.7169  12.6972  12.6972  12.8718  12.8718

          k = 0.0000 0.0000 0.0000 (   169 PWs)   bands (ev):

     4.9903   4.9906  11.2116  11.2116  11.2116  11.2117  11.2117  11.2117

          k = 0.1000 0.1000 0.1000 (   168 PWs)   bands (ev):

     5.3643   5.3645  11.1344  11.1345  11.2816  11.2816  11.2817  11.2817

          k = 0.2000 0.2000 0.2000 (   159 PWs)   bands (ev):

     6.4308   6.4310  10.9836  10.9837  11.3860  11.3860  11.3861  11.3861

          k = 0.3000 0.3000 0.3000 (   153 PWs)   bands (ev):

     7.9098   7.9101  11.0742  11.0743  11.3384  11.3384  11.3385  11.3385

          k = 0.4000 0.4000 0.4000 (   162 PWs)   bands (ev):

     8.9173   8.9174  11.2265  11.2265  11.2266  11.2266  12.1743  12.1745

          k = 0.5000 0.5000 0.5000 (   156 PWs)   bands (ev):

     9.1193   9.1194  11.1770  11.1770  11.1771  11.1771  12.7169  12.7169

     Writing output data file cu.save
 
     init_run     :      0.20s CPU      0.20s WALL (       1 calls)
     electrons    :      0.52s CPU      0.54s WALL (       1 calls)

     Called by init_run:
     wfcinit      :      0.00s CPU      0.00s WALL (       1 calls)
     potinit      :      0.01s CPU      0.01s WALL (       1 calls)

     Called by electrons:
     c_bands      :      0.52s CPU      0.54s WALL (       1 calls)
     v_of_rho     :      0.00s CPU      0.00s WALL (       1 calls)
     newd         :      0.01s CPU      0.01s WALL (       1 calls)

     Called by c_bands:
     init_us_2    :      0.00s CPU      0.00s WALL (      28 calls)
     cegterg      :      0.44s CPU      0.45s WALL (      30 calls)

     Called by sum_band:

     Called by *egterg:
     h_psi        :      0.36s CPU      0.37s WALL (     346 calls)
     s_psi        :      0.01s CPU      0.01s WALL (     346 calls)
     g_psi        :      0.00s CPU      0.00s WALL (     288 calls)
     cdiaghg      :      0.09s CPU      0.07s WALL (     316 calls)

     Called by h_psi:
     h_psi:pot    :      0.35s CPU      0.37s WALL (     346 calls)
     h_psi:calbec :      0.01s CPU      0.01s WALL (     346 calls)
     add_vuspsi   :      0.01s CPU      0.01s WALL (     346 calls)

     General routines
     calbec       :      0.01s CPU      0.01s WALL (     346 calls)
     fft          :      0.00s CPU      0.00s WALL (      14 calls)
     ffts         :      0.00s CPU      0.00s WALL (       4 calls)
     fftw         :      0.25s CPU      0.26s WALL (    9284 calls)
     interpolate  :      0.00s CPU      0.00s WALL (       4 calls)
     davcio       :      0.00s CPU      0.00s WALL (      28 calls)
 
     Parallel routines
     fft_scatter  :      0.07s CPU      0.08s WALL (    9302 calls)
 
     PWSCF        :     1.04s CPU         1.08s WALL

 
   This run was terminated on:  16:13: 9  18Aug2016            

=------------------------------------------------------------------------------=
   JOB DONE.
=------------------------------------------------------------------------------=
