
     Program PWSCF v.5.4.0 (svn rev. 12828M) starts on 23Aug2016 at 14:33:30 

     This program is part of the open-source Quantum ESPRESSO suite
     for quantum simulation of materials; please cite
         "P. Giannozzi et al., J. Phys.:Condens. Matter 21 395502 (2009);
          URL http://www.quantum-espresso.org", 
     in publications or presentations arising from this work. More details at
     http://www.quantum-espresso.org/quote
 
           HOST :    x86_64-pc-linux-gnu
           ARCH :    x86_64
             CC :    icc
            CPP :    cpp
            F90 :    ifort
            F77 :    ifort
         DFLAGS :    -D__INTEL -D__FFTW -D__MPI -D__PARA -D__HDF5
      BLAS LIBS :    -lmkl_intel_lp64  -lmkl_sequential -lmkl_core
    LAPACK LIBS :    
       FFT LIBS :    
      MASS LIBS :    

     Parallel version (MPI), running on     2 processors
     R & G space division:  proc/nbgrp/npool/nimage =       2
     Waiting for input...
     Reading input from standard input
     Message from routine read_cards :
     DEPRECATED: no units specified in ATOMIC_POSITIONS card
     Message from routine read_cards :
     ATOMIC_POSITIONS: units set to alat

     Current dimensions of program PWSCF are:
     Max number of different atomic species (ntypx) = 10
     Max number of k-points (npk) =  40000
     Max angular momentum in pseudopotentials (lmaxx) =  3
               file Cu.pz-d-rrkjus.UPF: wavefunction(s)  3D renormalized

     Subspace diagonalization in iterative solution of the eigenvalue problem:
     a serial algorithm will be used

 
     Parallelization info
     --------------------
     sticks:   dense  smooth     PW     G-vecs:    dense   smooth      PW
     Min         237      75     30                 3367      620     153
     Max         238      76     31                 3368      623     154
     Sum         475     151     61                 6735     1243     307
 


     bravais-lattice index     =            2
     lattice parameter (alat)  =       6.7300  a.u.
     unit-cell volume          =      76.2053 (a.u.)^3
     number of atoms/cell      =            1
     number of atomic types    =            1
     number of electrons       =        11.00
     number of Kohn-Sham states=           20
     kinetic-energy cutoff     =      25.0000  Ry
     charge density cutoff     =     300.0000  Ry
     convergence threshold     =      1.0E-08
     mixing beta               =       0.7000
     number of iterations used =            8  plain     mixing
     Exchange-correlation      =  SLA  PZ   NOGX NOGC ( 1  1  0  0 0 0)
     Noncollinear calculation without spin-orbit


     celldm(1)=   6.730000  celldm(2)=   0.000000  celldm(3)=   0.000000
     celldm(4)=   0.000000  celldm(5)=   0.000000  celldm(6)=   0.000000

     crystal axes: (cart. coord. in units of alat)
               a(1) = (  -0.500000   0.000000   0.500000 )  
               a(2) = (   0.000000   0.500000   0.500000 )  
               a(3) = (  -0.500000   0.500000   0.000000 )  

     reciprocal axes: (cart. coord. in units 2 pi/alat)
               b(1) = ( -1.000000 -1.000000  1.000000 )  
               b(2) = (  1.000000  1.000000  1.000000 )  
               b(3) = ( -1.000000  1.000000 -1.000000 )  


     PseudoPot. # 1 for Cu read from file:
     /home/nvarini/espresso_hdf5/espresso/pseudo/Cu.pz-d-rrkjus.UPF
     MD5 check sum: fd38ae683e239c95a66f426e1f8e5fc7
     Pseudo is Ultrasoft, Zval = 11.0
     Generated by new atomic code, or converted to UPF format
     Using radial grid of  899 points,  3 beta functions with: 
                l(1) =   2
                l(2) =   2
                l(3) =   1
     Q(r) pseudized with 0 coefficients 


     atomic species   valence    mass     pseudopotential
        Cu            11.00    63.55000     Cu( 1.00)

     16 Sym. Ops., with inversion, found



   Cartesian axes

     site n.     atom                  positions (alat units)
         1           Cu  tau(   1) = (   0.0000000   0.0000000   0.0000000  )

     number of k points=    59  Methfessel-Paxton smearing, width (Ry)=  0.0200
                       cart. coord. in units 2pi/alat
        k(    1) = (   0.0000000   0.0000000   0.0000000), wk =   0.0019531
        k(    2) = (  -0.1250000   0.1250000  -0.1250000), wk =   0.0156250
        k(    3) = (  -0.2500000   0.2500000  -0.2500000), wk =   0.0156250
        k(    4) = (  -0.3750000   0.3750000  -0.3750000), wk =   0.0156250
        k(    5) = (   0.5000000  -0.5000000   0.5000000), wk =   0.0078125
        k(    6) = (   0.0000000   0.2500000   0.0000000), wk =   0.0078125
        k(    7) = (  -0.1250000   0.3750000  -0.1250000), wk =   0.0312500
        k(    8) = (  -0.2500000   0.5000000  -0.2500000), wk =   0.0312500
        k(    9) = (   0.6250000  -0.3750000   0.6250000), wk =   0.0312500
        k(   10) = (   0.5000000  -0.2500000   0.5000000), wk =   0.0312500
        k(   11) = (   0.3750000  -0.1250000   0.3750000), wk =   0.0312500
        k(   12) = (   0.2500000   0.0000000   0.2500000), wk =   0.0156250
        k(   13) = (   0.0000000   0.5000000   0.0000000), wk =   0.0078125
        k(   14) = (  -0.1250000   0.6250000  -0.1250000), wk =   0.0312500
        k(   15) = (   0.7500000  -0.2500000   0.7500000), wk =   0.0312500
        k(   16) = (   0.6250000  -0.1250000   0.6250000), wk =   0.0312500
        k(   17) = (   0.5000000   0.0000000   0.5000000), wk =   0.0156250
        k(   18) = (   0.0000000   0.7500000   0.0000000), wk =   0.0078125
        k(   19) = (   0.8750000  -0.1250000   0.8750000), wk =   0.0312500
        k(   20) = (   0.7500000   0.0000000   0.7500000), wk =   0.0156250
        k(   21) = (   0.0000000  -1.0000000   0.0000000), wk =   0.0039062
        k(   22) = (  -0.2500000   0.5000000   0.0000000), wk =   0.0156250
        k(   23) = (   0.6250000  -0.3750000   0.8750000), wk =   0.0312500
        k(   24) = (   0.5000000  -0.2500000   0.7500000), wk =   0.0156250
        k(   25) = (   0.7500000  -0.2500000   1.0000000), wk =   0.0156250
        k(   26) = (   0.6250000  -0.1250000   0.8750000), wk =   0.0312500
        k(   27) = (   0.5000000   0.0000000   0.7500000), wk =   0.0156250
        k(   28) = (  -0.2500000  -1.0000000   0.0000000), wk =   0.0078125
        k(   29) = (  -0.5000000  -1.0000000   0.0000000), wk =   0.0039062
        k(   30) = (   0.2500000   0.0000000   0.0000000), wk =   0.0039062
        k(   31) = (   0.3750000  -0.1250000  -0.1250000), wk =   0.0156250
        k(   32) = (   0.5000000  -0.2500000  -0.2500000), wk =   0.0156250
        k(   33) = (  -0.3750000   0.6250000   0.6250000), wk =   0.0156250
        k(   34) = (  -0.2500000   0.5000000   0.5000000), wk =   0.0156250
        k(   35) = (  -0.1250000   0.3750000   0.3750000), wk =   0.0156250
        k(   36) = (   0.0000000   0.2500000   0.2500000), wk =   0.0078125
        k(   37) = (   0.5000000   0.0000000   0.0000000), wk =   0.0039062
        k(   38) = (   0.6250000  -0.1250000  -0.1250000), wk =   0.0156250
        k(   39) = (  -0.2500000   0.7500000   0.7500000), wk =   0.0156250
        k(   40) = (  -0.1250000   0.6250000   0.6250000), wk =   0.0156250
        k(   41) = (   0.0000000   0.5000000   0.5000000), wk =   0.0078125
        k(   42) = (   0.7500000   0.0000000   0.0000000), wk =   0.0039062
        k(   43) = (  -0.1250000   0.8750000   0.8750000), wk =   0.0156250
        k(   44) = (   0.0000000   0.7500000   0.7500000), wk =   0.0078125
        k(   45) = (  -1.0000000   0.0000000   0.0000000), wk =   0.0019531
        k(   46) = (   0.5000000   0.0000000  -0.2500000), wk =   0.0156250
        k(   47) = (   0.0000000  -0.2500000   0.5000000), wk =   0.0156250
        k(   48) = (  -0.3750000   0.8750000   0.6250000), wk =   0.0312500
        k(   49) = (   0.8750000   0.6250000  -0.3750000), wk =   0.0312500
        k(   50) = (  -0.2500000   0.7500000   0.5000000), wk =   0.0312500
        k(   51) = (  -0.2500000   1.0000000   0.7500000), wk =   0.0156250
        k(   52) = (   1.0000000   0.7500000  -0.2500000), wk =   0.0156250
        k(   53) = (  -0.1250000   0.8750000   0.6250000), wk =   0.0312500
        k(   54) = (   0.8750000   0.6250000  -0.1250000), wk =   0.0312500
        k(   55) = (   0.0000000   0.7500000   0.5000000), wk =   0.0156250
        k(   56) = (   0.7500000   0.5000000   0.0000000), wk =   0.0156250
        k(   57) = (  -1.0000000   0.0000000  -0.2500000), wk =   0.0078125
        k(   58) = (   0.0000000  -0.2500000  -1.0000000), wk =   0.0078125
        k(   59) = (  -1.0000000   0.0000000  -0.5000000), wk =   0.0078125

     Dense  grid:     6735 G-vectors     FFT dimensions: (  27,  27,  27)

     Smooth grid:     1243 G-vectors     FFT dimensions: (  15,  15,  15)

     Estimated max dynamical RAM per process >       9.25Mb

     Estimated total allocated dynamical RAM >      18.49Mb
     Generating pointlists ...
     new r_m :   0.2917 (alat units)  1.9630 (a.u.) for type    1

     Initial potential from superposition of free atoms

     starting charge   10.99968, renormalised to   11.00000

 ==============================================================================
     atom number    1 relative position :    0.0000   0.0000   0.0000
     charge :     9.993053
     magnetization :          4.996526    0.000000    0.000000
     magnetization/charge:    0.500000    0.000000    0.000000
     polar coord.: r, theta, phi [deg] :     4.996526   90.000000    0.000000

 ==============================================================================
     Starting wfc are   12 randomized atomic wfcs +    8 random wfc

     total cpu time spent up to now is        0.4 secs

     per-process dynamical memory:     8.9 Mb

     Self-consistent Calculation

     iteration #  1     ecut=    25.00 Ry     beta=0.70
     CG style diagonalization
     ethr =  1.00E-02,  avg # of iterations =  5.5

     total cpu time spent up to now is        2.2 secs

     total energy              =     -87.34316066 Ry
     Harris-Foulkes estimate   =     -87.47045817 Ry
     estimated scf accuracy    <       0.85850781 Ry

     total magnetization       =     1.18     0.00     0.00 Bohr mag/cell
     absolute magnetization    =     1.34 Bohr mag/cell

     iteration #  2     ecut=    25.00 Ry     beta=0.70
     CG style diagonalization
     ethr =  7.80E-03,  avg # of iterations =  3.3

     negative rho (up, down):  0.000E+00 5.081E-05

     total cpu time spent up to now is        3.2 secs

     total energy              =     -87.71842604 Ry
     Harris-Foulkes estimate   =     -87.93377577 Ry
     estimated scf accuracy    <       0.75018894 Ry

     total magnetization       =     0.15     0.00    -0.00 Bohr mag/cell
     absolute magnetization    =     0.21 Bohr mag/cell

     iteration #  3     ecut=    25.00 Ry     beta=0.70
     CG style diagonalization
     ethr =  6.82E-03,  avg # of iterations =  3.0

     negative rho (up, down):  0.000E+00 5.081E-05

     total cpu time spent up to now is        4.2 secs

     total energy              =     -87.82066247 Ry
     Harris-Foulkes estimate   =     -87.79452187 Ry
     estimated scf accuracy    <       0.06687006 Ry

     total magnetization       =     0.22     0.00     0.00 Bohr mag/cell
     absolute magnetization    =     0.31 Bohr mag/cell

     iteration #  4     ecut=    25.00 Ry     beta=0.70
     CG style diagonalization
     ethr =  6.08E-04,  avg # of iterations =  3.4

     negative rho (up, down):  2.380E-06 5.081E-05

     total cpu time spent up to now is        5.2 secs

     total energy              =     -87.83374045 Ry
     Harris-Foulkes estimate   =     -87.84641242 Ry
     estimated scf accuracy    <       0.02283692 Ry

     total magnetization       =    -0.02     0.00    -0.00 Bohr mag/cell
     absolute magnetization    =     0.03 Bohr mag/cell

     iteration #  5     ecut=    25.00 Ry     beta=0.70
     CG style diagonalization
     ethr =  2.08E-04,  avg # of iterations =  3.0

     total cpu time spent up to now is        6.2 secs

     total energy              =     -87.84011347 Ry
     Harris-Foulkes estimate   =     -87.84036459 Ry
     estimated scf accuracy    <       0.00116728 Ry

     total magnetization       =    -0.03     0.00     0.00 Bohr mag/cell
     absolute magnetization    =     0.03 Bohr mag/cell

     iteration #  6     ecut=    25.00 Ry     beta=0.70
     CG style diagonalization
     c_bands:  1 eigenvalues not converged
     c_bands:  1 eigenvalues not converged
     ethr =  1.06E-05,  avg # of iterations =  3.5

     total cpu time spent up to now is        7.3 secs

     total energy              =     -87.84036519 Ry
     Harris-Foulkes estimate   =     -87.84038922 Ry
     estimated scf accuracy    <       0.00006154 Ry

     total magnetization       =     0.00    -0.00    -0.00 Bohr mag/cell
     absolute magnetization    =     0.01 Bohr mag/cell

     iteration #  7     ecut=    25.00 Ry     beta=0.70
     CG style diagonalization
     ethr =  5.59E-07,  avg # of iterations =  3.4

     total cpu time spent up to now is        8.3 secs

     total energy              =     -87.84038589 Ry
     Harris-Foulkes estimate   =     -87.84038775 Ry
     estimated scf accuracy    <       0.00000695 Ry

     total magnetization       =     0.00    -0.00     0.00 Bohr mag/cell
     absolute magnetization    =     0.00 Bohr mag/cell

     iteration #  8     ecut=    25.00 Ry     beta=0.70
     CG style diagonalization
     ethr =  6.32E-08,  avg # of iterations =  3.1

     total cpu time spent up to now is        9.3 secs

     total energy              =     -87.84038877 Ry
     Harris-Foulkes estimate   =     -87.84038920 Ry
     estimated scf accuracy    <       0.00000086 Ry

     total magnetization       =    -0.00     0.00    -0.00 Bohr mag/cell
     absolute magnetization    =     0.00 Bohr mag/cell

     iteration #  9     ecut=    25.00 Ry     beta=0.70
     CG style diagonalization
     ethr =  7.83E-09,  avg # of iterations =  3.0

 ==============================================================================
     atom number    1 relative position :    0.0000   0.0000   0.0000
     charge :     9.813839
     magnetization :          0.000032    0.000000    0.000000
     magnetization/charge:    0.000003    0.000000    0.000000
     polar coord.: r, theta, phi [deg] :     0.000032   90.000000    0.000000

 ==============================================================================

     total cpu time spent up to now is       10.3 secs

     End of self-consistent calculation

          k = 0.0000 0.0000 0.0000 (   169 PWs)   bands (ev):

     4.9903   4.9906  11.2121  11.2121  11.2121  11.2123  11.2123  11.2123
    12.1018  12.1018  12.1020  12.1020  38.8593  38.8598  41.0137  41.0137
    41.0138  41.0139  41.0140  41.0142

          k =-0.1250 0.1250-0.1250 (   165 PWs)   bands (ev):

     5.5710   5.5713  11.0973  11.0975  11.3139  11.3139  11.3141  11.3141
    12.0713  12.0713  12.0715  12.0716  34.2726  34.2728  39.2716  39.2720
    39.7096  39.7096  39.7098  39.7098

          k =-0.2500 0.2500-0.2500 (   156 PWs)   bands (ev):

     7.1559   7.1562  10.9624  10.9625  11.3822  11.3822  11.3824  11.3824
    12.1940  12.1940  12.1942  12.1942  27.5300  27.5302  38.3749  38.3750
    38.3751  38.3752  38.4653  38.4656

          k =-0.3750 0.3750-0.3750 (   159 PWs)   bands (ev):

     8.7626   8.7627  11.2524  11.2524  11.2526  11.2526  11.7765  11.7766
    12.5426  12.5426  12.5428  12.5428  21.8077  21.8079  37.4526  37.4530
    37.7382  37.7383  37.7385  37.7386

          k = 0.5000-0.5000 0.5000 (   156 PWs)   bands (ev):

     9.1198   9.1198  11.1775  11.1775  11.1777  11.1777  12.7174  12.7174
    12.7177  12.7177  13.4639  13.4642  18.6473  18.6474  37.0201  37.0204
    37.6122  37.6123  37.6125  37.6125

          k = 0.0000 0.2500 0.0000 (   165 PWs)   bands (ev):

     5.7621   5.7624  10.9832  10.9834  11.4054  11.4054  11.4056  11.4056
    11.9008  11.9011  12.1877  12.1879  36.7469  36.7469  36.7472  36.7472
    36.7679  36.7682  38.6742  38.6744

          k =-0.1250 0.3750-0.1250 (   160 PWs)   bands (ev):

     7.0147   7.0150  10.7595  10.7597  11.4426  11.4428  11.5636  11.5638
    11.9843  11.9845  12.3198  12.3200  30.0799  30.0802  34.8370  34.8373
    36.4463  36.4467  38.9427  38.9428

          k =-0.2500 0.5000-0.2500 (   158 PWs)   bands (ev):

     8.7316   8.7318  10.8361  10.8362  11.1914  11.1916  11.4999  11.5001
    12.6052  12.6055  12.8158  12.8160  23.9455  23.9457  34.0874  34.0876
    34.9386  34.9389  36.6385  36.6388

          k = 0.6250-0.3750 0.6250 (   163 PWs)   bands (ev):

     9.3905   9.3906  10.9735  10.9736  11.3808  11.3810  11.6286  11.6287
    12.7295  12.7298  14.6438  14.6439  19.3258  19.3259  32.8149  32.8151
    34.6303  34.6306  36.4067  36.4069

          k = 0.5000-0.2500 0.5000 (   161 PWs)   bands (ev):

     9.3182   9.3182  11.0470  11.0472  11.3800  11.3802  11.4901  11.4902
    12.4962  12.4965  14.0608  14.0608  20.5873  20.5874  31.5903  31.5905
    36.5330  36.5333  37.3113  37.3116

          k = 0.3750-0.1250 0.3750 (   159 PWs)   bands (ev):

     8.2149   8.2151  10.8167  10.8168  11.2664  11.2666  11.5182  11.5184
    12.0427  12.0430  12.8333  12.8335  25.8888  25.8890  31.4964  31.4966
    39.3195  39.3198  39.7102  39.7105

          k = 0.2500 0.0000 0.2500 (   160 PWs)   bands (ev):

     6.4957   6.4960  10.9088  10.9090  11.4025  11.4027  11.4846  11.4849
    11.8808  11.8810  12.2902  12.2904  32.0430  32.0433  32.7835  32.7838
    41.5265  41.5267  42.4818  42.4830

          k = 0.0000 0.5000 0.0000 (   165 PWs)   bands (ev):

     7.7951   7.7954  10.4449  10.4451  11.6426  11.6427  11.9306  11.9307
    11.9309  11.9309  12.3968  12.3971  32.3407  32.3407  32.3409  32.3409
    33.7609  33.7612  34.5464  34.5466

          k =-0.1250 0.6250-0.1250 (   162 PWs)   bands (ev):

     9.0262   9.0263  10.2440  10.2442  11.4598  11.4599  12.0306  12.0308
    12.6337  12.6340  12.9945  12.9946  26.9800  26.9802  30.3551  30.3553
    31.0993  31.0996  35.0387  35.0388

          k = 0.7500-0.2500 0.7500 (   158 PWs)   bands (ev):

     9.7745   9.7745  10.3376  10.3376  11.2740  11.2742  11.9058  11.9060
    12.7612  12.7615  15.5349  15.5349  21.6032  21.6034  27.6767  27.6769
    31.3028  31.3030  35.1343  35.1346

          k = 0.6250-0.1250 0.6250 (   162 PWs)   bands (ev):

    10.0265  10.0266  10.5350  10.5351  11.0778  11.0779  11.8010  11.8012
    12.5183  12.5186  16.7784  16.7785  20.0961  20.0963  26.0440  26.0442
    32.9725  32.9728  35.8429  35.8432

          k = 0.5000 0.0000 0.5000 (   164 PWs)   bands (ev):

     9.6307   9.6308  10.6871  10.6872  10.9044  10.9046  11.7538  11.7540
    12.1036  12.1039  14.2125  14.2126  24.5990  24.5992  26.0268  26.0270
    35.9002  35.9005  37.3884  37.3886

          k = 0.0000 0.7500 0.0000 (   162 PWs)   bands (ev):

     9.2119   9.2119   9.9262   9.9264  12.5653  12.5653  12.5655  12.5655
    12.6091  12.6093  13.2901  13.2903  26.4728  26.4730  29.3005  29.3005
    29.3007  29.3008  33.3096  33.3098

          k = 0.8750-0.1250 0.8750 (   164 PWs)   bands (ev):

     9.4577   9.4578   9.8807   9.8809  12.2123  12.2125  12.4815  12.4817
    12.8065  12.8068  15.9158  15.9160  23.7248  23.7249  25.2535  25.2537
    29.0137  29.0140  34.1905  34.1907

          k = 0.7500 0.0000 0.7500 (   168 PWs)   bands (ev):

     9.8694   9.8694  10.1178  10.1179  11.5173  11.5175  12.2492  12.2494
    12.6609  12.6612  19.0084  19.0086  20.5170  20.5172  22.9160  22.9162
    30.3253  30.3255  34.7847  34.7849

          k = 0.0000-1.0000 0.0000 (   150 PWs)   bands (ev):

     9.2663   9.2663   9.7173   9.7174  12.6977  12.6980  12.8723  12.8723
    12.8726  12.8726  16.0646  16.0649  22.1124  22.1125  28.1801  28.1801
    28.1804  28.1805  32.9253  32.9254

          k =-0.2500 0.5000 0.0000 (   156 PWs)   bands (ev):

     8.3852   8.3854  10.5346  10.5348  11.2128  11.2130  11.9399  11.9401
    11.9927  11.9928  12.8710  12.8712  28.3805  28.3807  29.1688  29.1690
    34.7038  34.7041  39.7259  39.7261

          k = 0.6250-0.3750 0.8750 (   161 PWs)   bands (ev):

     9.6577   9.6578  10.6139  10.6140  10.9352  10.9354  11.8102  11.8104
    12.4705  12.4707  14.3857  14.3858  22.9179  22.9181  28.5930  28.5932
    31.6521  31.6523  39.6665  39.6668

          k = 0.5000-0.2500 0.7500 (   164 PWs)   bands (ev):

     9.8978   9.8979  10.5968  10.5969  11.1687  11.1689  11.6980  11.6982
    12.6587  12.6590  16.6937  16.6938  19.1460  19.1461  29.3161  29.3164
    29.7926  29.7929  39.3675  39.3677

          k = 0.7500-0.2500 1.0000 (   166 PWs)   bands (ev):

     9.6208   9.6208  10.1242  10.1244  11.4258  11.4259  12.4034  12.4036
    12.5614  12.5617  14.7945  14.7946  25.8724  25.8726  26.6522  26.6524
    27.2680  27.2683  37.9003  37.9006

          k = 0.6250-0.1250 0.8750 (   161 PWs)   bands (ev):

    10.0012  10.0013  10.2741  10.2742  11.1336  11.1337  12.1351  12.1354
    12.7446  12.7449  18.0204  18.0205  21.2279  21.2280  24.7962  24.7964
    27.1035  27.1037  39.0197  39.0199

          k = 0.5000 0.0000 0.7500 (   158 PWs)   bands (ev):

    10.2802  10.2802  10.4650  10.4651  10.7107  10.7108  12.0139  12.0141
    12.5655  12.5658  17.1297  17.1298  21.9674  21.9676  24.2090  24.2092
    28.8760  28.8762  40.2138  40.2140

          k =-0.2500-1.0000 0.0000 (   164 PWs)   bands (ev):

     9.6012   9.6012   9.9544   9.9545  11.8941  11.8942  12.4339  12.4341
    12.8725  12.8728  17.7251  17.7254  22.3942  22.3943  24.9311  24.9313
    26.0253  26.0255  37.2966  37.2969

          k =-0.5000-1.0000 0.0000 (   156 PWs)   bands (ev):

    10.0370  10.0371  10.6873  10.6873  10.6874  10.6874  12.0684  12.0686
    12.8729  12.8732  20.9536  20.9536  20.9538  20.9538  23.1357  23.1358
    24.0563  24.0565  44.6544  44.6566

          k = 0.2500 0.0000 0.0000 (   165 PWs)   bands (ev):

     5.7621   5.7624  10.9832  10.9834  11.4054  11.4054  11.4056  11.4056
    11.9008  11.9011  12.1877  12.1879  36.7469  36.7469  36.7472  36.7472
    36.7679  36.7682  38.6741  38.6744

          k = 0.3750-0.1250-0.1250 (   160 PWs)   bands (ev):

     7.0147   7.0150  10.7595  10.7597  11.4426  11.4428  11.5636  11.5638
    11.9843  11.9845  12.3198  12.3200  30.0799  30.0802  34.8371  34.8373
    36.4464  36.4466  38.9428  38.9431

          k = 0.5000-0.2500-0.2500 (   158 PWs)   bands (ev):

     8.7316   8.7318  10.8361  10.8362  11.1914  11.1916  11.4999  11.5001
    12.6052  12.6055  12.8158  12.8160  23.9455  23.9457  34.0874  34.0876
    34.9387  34.9389  36.6385  36.6387

          k =-0.3750 0.6250 0.6250 (   163 PWs)   bands (ev):

     9.3906   9.3906  10.9735  10.9736  11.3808  11.3810  11.6286  11.6287
    12.7295  12.7298  14.6438  14.6439  19.3258  19.3259  32.8149  32.8151
    34.6303  34.6306  36.4067  36.4069

          k =-0.2500 0.5000 0.5000 (   161 PWs)   bands (ev):

     9.3182   9.3182  11.0470  11.0472  11.3800  11.3802  11.4901  11.4902
    12.4962  12.4965  14.0608  14.0608  20.5873  20.5874  31.5903  31.5905
    36.5331  36.5333  37.3113  37.3116

          k =-0.1250 0.3750 0.3750 (   159 PWs)   bands (ev):

     8.2149   8.2151  10.8167  10.8168  11.2664  11.2666  11.5182  11.5184
    12.0427  12.0430  12.8333  12.8335  25.8888  25.8890  31.4964  31.4966
    39.3195  39.3198  39.7103  39.7105

          k = 0.0000 0.2500 0.2500 (   160 PWs)   bands (ev):

     6.4957   6.4960  10.9088  10.9090  11.4025  11.4027  11.4846  11.4849
    11.8808  11.8810  12.2902  12.2904  32.0430  32.0432  32.7835  32.7838
    41.5264  41.5268  42.4815  42.4819

          k = 0.5000 0.0000 0.0000 (   165 PWs)   bands (ev):

     7.7951   7.7954  10.4449  10.4451  11.6426  11.6427  11.9306  11.9306
    11.9309  11.9309  12.3969  12.3971  32.3407  32.3407  32.3409  32.3409
    33.7609  33.7612  34.5464  34.5466

          k = 0.6250-0.1250-0.1250 (   162 PWs)   bands (ev):

     9.0262   9.0263  10.2440  10.2442  11.4598  11.4599  12.0306  12.0308
    12.6337  12.6340  12.9945  12.9946  26.9800  26.9802  30.3551  30.3553
    31.0993  31.0996  35.0386  35.0389

          k =-0.2500 0.7500 0.7500 (   158 PWs)   bands (ev):

     9.7745   9.7745  10.3376  10.3376  11.2740  11.2742  11.9058  11.9060
    12.7612  12.7615  15.5349  15.5349  21.6032  21.6034  27.6767  27.6769
    31.3028  31.3030  35.1343  35.1346

          k =-0.1250 0.6250 0.6250 (   162 PWs)   bands (ev):

    10.0265  10.0266  10.5350  10.5351  11.0778  11.0779  11.8010  11.8012
    12.5183  12.5186  16.7784  16.7785  20.0961  20.0963  26.0440  26.0442
    32.9725  32.9728  35.8429  35.8432

          k = 0.0000 0.5000 0.5000 (   164 PWs)   bands (ev):

     9.6307   9.6308  10.6871  10.6872  10.9044  10.9046  11.7538  11.7540
    12.1036  12.1039  14.2125  14.2126  24.5990  24.5991  26.0268  26.0270
    35.9002  35.9005  37.3884  37.3886

          k = 0.7500 0.0000 0.0000 (   162 PWs)   bands (ev):

     9.2119   9.2119   9.9262   9.9264  12.5653  12.5653  12.5655  12.5655
    12.6091  12.6093  13.2901  13.2903  26.4728  26.4730  29.3005  29.3005
    29.3007  29.3007  33.3096  33.3100

          k =-0.1250 0.8750 0.8750 (   164 PWs)   bands (ev):

     9.4577   9.4578   9.8808   9.8809  12.2123  12.2125  12.4815  12.4817
    12.8065  12.8068  15.9158  15.9160  23.7248  23.7249  25.2535  25.2538
    29.0137  29.0140  34.1906  34.1909

          k = 0.0000 0.7500 0.7500 (   168 PWs)   bands (ev):

     9.8694   9.8694  10.1178  10.1179  11.5173  11.5175  12.2492  12.2494
    12.6609  12.6612  19.0084  19.0086  20.5170  20.5172  22.9160  22.9162
    30.3253  30.3255  34.7847  34.7849

          k =-1.0000 0.0000 0.0000 (   150 PWs)   bands (ev):

     9.2662   9.2663   9.7173   9.7174  12.6977  12.6980  12.8723  12.8723
    12.8726  12.8726  16.0646  16.0649  22.1124  22.1125  28.1801  28.1802
    28.1804  28.1804  32.9252  32.9255

          k = 0.5000 0.0000-0.2500 (   156 PWs)   bands (ev):

     8.3852   8.3854  10.5346  10.5348  11.2128  11.2130  11.9399  11.9401
    11.9927  11.9928  12.8710  12.8712  28.3805  28.3807  29.1687  29.1690
    34.7038  34.7041  39.7257  39.7259

          k = 0.0000-0.2500 0.5000 (   156 PWs)   bands (ev):

     8.3852   8.3854  10.5346  10.5348  11.2128  11.2130  11.9399  11.9401
    11.9927  11.9928  12.8710  12.8712  28.3805  28.3807  29.1687  29.1690
    34.7038  34.7041  39.7259  39.7265

          k =-0.3750 0.8750 0.6250 (   161 PWs)   bands (ev):

     9.6577   9.6578  10.6139  10.6140  10.9352  10.9354  11.8102  11.8104
    12.4705  12.4707  14.3857  14.3858  22.9179  22.9181  28.5930  28.5932
    31.6521  31.6523  39.6665  39.6669

          k = 0.8750 0.6250-0.3750 (   161 PWs)   bands (ev):

     9.6577   9.6578  10.6139  10.6140  10.9352  10.9354  11.8102  11.8104
    12.4705  12.4707  14.3857  14.3858  22.9179  22.9181  28.5930  28.5932
    31.6521  31.6523  39.6665  39.6668

          k =-0.2500 0.7500 0.5000 (   164 PWs)   bands (ev):

     9.8978   9.8979  10.5968  10.5969  11.1687  11.1689  11.6980  11.6982
    12.6587  12.6590  16.6937  16.6938  19.1460  19.1461  29.3161  29.3164
    29.7926  29.7928  39.3675  39.3677

          k =-0.2500 1.0000 0.7500 (   166 PWs)   bands (ev):

     9.6208   9.6208  10.1242  10.1244  11.4258  11.4259  12.4034  12.4036
    12.5614  12.5617  14.7945  14.7946  25.8724  25.8726  26.6522  26.6524
    27.2680  27.2683  37.9003  37.9006

          k = 1.0000 0.7500-0.2500 (   166 PWs)   bands (ev):

     9.6208   9.6208  10.1242  10.1244  11.4258  11.4259  12.4034  12.4036
    12.5614  12.5617  14.7945  14.7946  25.8724  25.8726  26.6522  26.6524
    27.2680  27.2683  37.9003  37.9006

          k =-0.1250 0.8750 0.6250 (   161 PWs)   bands (ev):

    10.0012  10.0013  10.2741  10.2742  11.1336  11.1337  12.1351  12.1354
    12.7446  12.7449  18.0204  18.0205  21.2279  21.2280  24.7962  24.7964
    27.1035  27.1037  39.0197  39.0199

          k = 0.8750 0.6250-0.1250 (   161 PWs)   bands (ev):

    10.0012  10.0013  10.2741  10.2742  11.1336  11.1337  12.1351  12.1354
    12.7446  12.7449  18.0204  18.0205  21.2279  21.2280  24.7962  24.7964
    27.1035  27.1037  39.0197  39.0199

          k = 0.0000 0.7500 0.5000 (   158 PWs)   bands (ev):

    10.2802  10.2802  10.4650  10.4651  10.7107  10.7108  12.0139  12.0141
    12.5655  12.5658  17.1297  17.1298  21.9674  21.9676  24.2090  24.2092
    28.8760  28.8762  40.2137  40.2140

          k = 0.7500 0.5000 0.0000 (   158 PWs)   bands (ev):

    10.2802  10.2802  10.4650  10.4651  10.7107  10.7108  12.0139  12.0141
    12.5655  12.5658  17.1297  17.1298  21.9674  21.9676  24.2090  24.2092
    28.8760  28.8762  40.2138  40.2140

          k =-1.0000 0.0000-0.2500 (   164 PWs)   bands (ev):

     9.6012   9.6012   9.9544   9.9545  11.8941  11.8942  12.4339  12.4341
    12.8725  12.8728  17.7251  17.7254  22.3942  22.3943  24.9311  24.9313
    26.0252  26.0255  37.2966  37.2968

          k = 0.0000-0.2500-1.0000 (   164 PWs)   bands (ev):

     9.6012   9.6012   9.9544   9.9545  11.8941  11.8942  12.4339  12.4341
    12.8725  12.8728  17.7251  17.7254  22.3942  22.3943  24.9311  24.9313
    26.0253  26.0255  37.2965  37.2968

          k =-1.0000 0.0000-0.5000 (   156 PWs)   bands (ev):

    10.0370  10.0371  10.6873  10.6873  10.6874  10.6874  12.0684  12.0686
    12.8729  12.8732  20.9536  20.9536  20.9538  20.9538  23.1357  23.1358
    24.0563  24.0565  44.6545  44.6549

     the Fermi energy is    14.4914 ev

!    total energy              =     -87.84038898 Ry
     Harris-Foulkes estimate   =     -87.84038898 Ry
     estimated scf accuracy    <          5.2E-09 Ry

     The total energy is the sum of the following terms:

     one-electron contribution =     -10.24904193 Ry
     hartree contribution      =      18.89871324 Ry
     xc contribution           =     -14.05778026 Ry
     ewald contribution        =     -82.43214130 Ry
     smearing contrib. (-TS)   =      -0.00013872 Ry

     total magnetization       =     0.00    -0.00     0.00 Bohr mag/cell
     absolute magnetization    =     0.00 Bohr mag/cell

     convergence has been achieved in   9 iterations

     Writing output data file cu.save
 
     init_run     :      0.40s CPU      0.42s WALL (       1 calls)
     electrons    :      9.34s CPU      9.82s WALL (       1 calls)

     Called by init_run:
     wfcinit      :      0.21s CPU      0.22s WALL (       1 calls)
     potinit      :      0.01s CPU      0.01s WALL (       1 calls)

     Called by electrons:
     c_bands      :      7.99s CPU      8.43s WALL (       9 calls)
     sum_band     :      1.23s CPU      1.27s WALL (       9 calls)
     v_of_rho     :      0.03s CPU      0.03s WALL (      10 calls)
     newd         :      0.05s CPU      0.06s WALL (      10 calls)
     mix_rho      :      0.02s CPU      0.02s WALL (       9 calls)

     Called by c_bands:
     init_us_2    :      0.03s CPU      0.03s WALL (    1121 calls)
     ccgdiagg     :      6.35s CPU      6.72s WALL (     531 calls)
     wfcrot       :      1.80s CPU      1.87s WALL (     531 calls)

     Called by sum_band:
     sum_band:bec :      0.01s CPU      0.01s WALL (     531 calls)
     addusdens    :      0.18s CPU      0.18s WALL (       9 calls)

     Called by *cgdiagg:
     h_psi        :      6.18s CPU      6.51s WALL (   28007 calls)
     s_psi        :      0.41s CPU      0.43s WALL (   55483 calls)
     cdiaghg      :      0.09s CPU      0.08s WALL (     531 calls)

     Called by h_psi:
     h_psi:pot    :      6.12s CPU      6.44s WALL (   28007 calls)
     h_psi:calbec :      0.39s CPU      0.41s WALL (   28007 calls)
     add_vuspsi   :      0.18s CPU      0.20s WALL (   28007 calls)
     h_1psi       :      4.89s CPU      5.19s WALL (   27476 calls)

     General routines
     calbec       :      0.59s CPU      0.63s WALL (   56014 calls)
     fft          :      0.06s CPU      0.06s WALL (     307 calls)
     ffts         :      0.00s CPU      0.00s WALL (      76 calls)
     fftw         :      4.65s CPU      4.92s WALL (  173624 calls)
     interpolate  :      0.02s CPU      0.02s WALL (      76 calls)
 
     Parallel routines
     fft_scatter  :      1.32s CPU      1.41s WALL (  174007 calls)
 
     PWSCF        :     9.94s CPU        10.46s WALL

 
   This run was terminated on:  14:33:41  23Aug2016            

=------------------------------------------------------------------------------=
   JOB DONE.
=------------------------------------------------------------------------------=
