
     Program PWSCF v.5.4.0 (svn rev. 12496M) starts on 15Jun2016 at 11:21: 8 

     This program is part of the open-source Quantum ESPRESSO suite
     for quantum simulation of materials; please cite
         "P. Giannozzi et al., J. Phys.:Condens. Matter 21 395502 (2009);
          URL http://www.quantum-espresso.org", 
     in publications or presentations arising from this work. More details at
     http://www.quantum-espresso.org/quote
 
           HOST :    @host@
           ARCH :    x86_64
             CC :    cc
            CPP :    cpp
            F90 :    mpif90
            F77 :    gfortran
         DFLAGS :    -D__GFORTRAN -D__STD_F95 -D__DFTI -D__MPI -D__PARA
      BLAS LIBS :    -lmkl_gf_lp64  -lmkl_sequential -lmkl_core
    LAPACK LIBS :    
       FFT LIBS :    
      MASS LIBS :    

     Parallel version (MPI), running on     2 processors
     R & G space division:  proc/nbgrp/npool/nimage =       2
     Waiting for input...
     Reading input from standard input
     Message from routine read_cards :
     DEPRECATED: no units specified in ATOMIC_POSITIONS card
     Message from routine read_cards :
     ATOMIC_POSITIONS: units set to alat

     Current dimensions of program PWSCF are:
     Max number of different atomic species (ntypx) = 10
     Max number of k-points (npk) =  40000
     Max angular momentum in pseudopotentials (lmaxx) =  3
               file Cu.pz-d-rrkjus.UPF: wavefunction(s)  3D renormalized

     Subspace diagonalization in iterative solution of the eigenvalue problem:
     a serial algorithm will be used

 
     Parallelization info
     --------------------
     sticks:   dense  smooth     PW     G-vecs:    dense   smooth      PW
     Min         237      75     30                 3367      621     153
     Max         238      76     31                 3368      622     154
     Sum         475     151     61                 6735     1243     307
 
     Generating pointlists ...
     new r_m :   0.2917 (alat units)  1.9630 (a.u.) for type    1


     bravais-lattice index     =            2
     lattice parameter (alat)  =       6.7300  a.u.
     unit-cell volume          =      76.2053 (a.u.)^3
     number of atoms/cell      =            1
     number of atomic types    =            1
     number of electrons       =        11.00
     number of Kohn-Sham states=           20
     kinetic-energy cutoff     =      25.0000  Ry
     charge density cutoff     =     300.0000  Ry
     convergence threshold     =      1.0E-08
     mixing beta               =       0.7000
     number of iterations used =            8  plain     mixing
     Exchange-correlation      =  SLA  PZ   NOGX NOGC ( 1  1  0  0 0 0)
     Noncollinear calculation without spin-orbit


     celldm(1)=   6.730000  celldm(2)=   0.000000  celldm(3)=   0.000000
     celldm(4)=   0.000000  celldm(5)=   0.000000  celldm(6)=   0.000000

     crystal axes: (cart. coord. in units of alat)
               a(1) = (  -0.500000   0.000000   0.500000 )  
               a(2) = (   0.000000   0.500000   0.500000 )  
               a(3) = (  -0.500000   0.500000   0.000000 )  

     reciprocal axes: (cart. coord. in units 2 pi/alat)
               b(1) = ( -1.000000 -1.000000  1.000000 )  
               b(2) = (  1.000000  1.000000  1.000000 )  
               b(3) = ( -1.000000  1.000000 -1.000000 )  


     PseudoPot. # 1 for Cu read from file:
     /home/nvarini/espresso_hdf5/espresso/pseudo/Cu.pz-d-rrkjus.UPF
     MD5 check sum: fd38ae683e239c95a66f426e1f8e5fc7
     Pseudo is Ultrasoft, Zval = 11.0
     Generated by new atomic code, or converted to UPF format
     Using radial grid of  899 points,  3 beta functions with: 
                l(1) =   2
                l(2) =   2
                l(3) =   1
     Q(r) pseudized with 0 coefficients 


     atomic species   valence    mass     pseudopotential
        Cu            11.00    63.55000     Cu( 1.00)

     16 Sym. Ops., with inversion, found



   Cartesian axes

     site n.     atom                  positions (alat units)
         1           Cu  tau(   1) = (   0.0000000   0.0000000   0.0000000  )

     number of k points=    59  Methfessel-Paxton smearing, width (Ry)=  0.0200
                       cart. coord. in units 2pi/alat
        k(    1) = (   0.0000000   0.0000000   0.0000000), wk =   0.0019531
        k(    2) = (  -0.1250000   0.1250000  -0.1250000), wk =   0.0156250
        k(    3) = (  -0.2500000   0.2500000  -0.2500000), wk =   0.0156250
        k(    4) = (  -0.3750000   0.3750000  -0.3750000), wk =   0.0156250
        k(    5) = (   0.5000000  -0.5000000   0.5000000), wk =   0.0078125
        k(    6) = (   0.0000000   0.2500000   0.0000000), wk =   0.0078125
        k(    7) = (  -0.1250000   0.3750000  -0.1250000), wk =   0.0312500
        k(    8) = (  -0.2500000   0.5000000  -0.2500000), wk =   0.0312500
        k(    9) = (   0.6250000  -0.3750000   0.6250000), wk =   0.0312500
        k(   10) = (   0.5000000  -0.2500000   0.5000000), wk =   0.0312500
        k(   11) = (   0.3750000  -0.1250000   0.3750000), wk =   0.0312500
        k(   12) = (   0.2500000   0.0000000   0.2500000), wk =   0.0156250
        k(   13) = (   0.0000000   0.5000000   0.0000000), wk =   0.0078125
        k(   14) = (  -0.1250000   0.6250000  -0.1250000), wk =   0.0312500
        k(   15) = (   0.7500000  -0.2500000   0.7500000), wk =   0.0312500
        k(   16) = (   0.6250000  -0.1250000   0.6250000), wk =   0.0312500
        k(   17) = (   0.5000000   0.0000000   0.5000000), wk =   0.0156250
        k(   18) = (   0.0000000   0.7500000   0.0000000), wk =   0.0078125
        k(   19) = (   0.8750000  -0.1250000   0.8750000), wk =   0.0312500
        k(   20) = (   0.7500000   0.0000000   0.7500000), wk =   0.0156250
        k(   21) = (   0.0000000  -1.0000000   0.0000000), wk =   0.0039062
        k(   22) = (  -0.2500000   0.5000000   0.0000000), wk =   0.0156250
        k(   23) = (   0.6250000  -0.3750000   0.8750000), wk =   0.0312500
        k(   24) = (   0.5000000  -0.2500000   0.7500000), wk =   0.0156250
        k(   25) = (   0.7500000  -0.2500000   1.0000000), wk =   0.0156250
        k(   26) = (   0.6250000  -0.1250000   0.8750000), wk =   0.0312500
        k(   27) = (   0.5000000   0.0000000   0.7500000), wk =   0.0156250
        k(   28) = (  -0.2500000  -1.0000000   0.0000000), wk =   0.0078125
        k(   29) = (  -0.5000000  -1.0000000   0.0000000), wk =   0.0039062
        k(   30) = (   0.2500000   0.0000000   0.0000000), wk =   0.0039062
        k(   31) = (   0.3750000  -0.1250000  -0.1250000), wk =   0.0156250
        k(   32) = (   0.5000000  -0.2500000  -0.2500000), wk =   0.0156250
        k(   33) = (  -0.3750000   0.6250000   0.6250000), wk =   0.0156250
        k(   34) = (  -0.2500000   0.5000000   0.5000000), wk =   0.0156250
        k(   35) = (  -0.1250000   0.3750000   0.3750000), wk =   0.0156250
        k(   36) = (   0.0000000   0.2500000   0.2500000), wk =   0.0078125
        k(   37) = (   0.5000000   0.0000000   0.0000000), wk =   0.0039062
        k(   38) = (   0.6250000  -0.1250000  -0.1250000), wk =   0.0156250
        k(   39) = (  -0.2500000   0.7500000   0.7500000), wk =   0.0156250
        k(   40) = (  -0.1250000   0.6250000   0.6250000), wk =   0.0156250
        k(   41) = (   0.0000000   0.5000000   0.5000000), wk =   0.0078125
        k(   42) = (   0.7500000   0.0000000   0.0000000), wk =   0.0039062
        k(   43) = (  -0.1250000   0.8750000   0.8750000), wk =   0.0156250
        k(   44) = (   0.0000000   0.7500000   0.7500000), wk =   0.0078125
        k(   45) = (  -1.0000000   0.0000000   0.0000000), wk =   0.0019531
        k(   46) = (   0.5000000   0.0000000  -0.2500000), wk =   0.0156250
        k(   47) = (   0.0000000  -0.2500000   0.5000000), wk =   0.0156250
        k(   48) = (  -0.3750000   0.8750000   0.6250000), wk =   0.0312500
        k(   49) = (   0.8750000   0.6250000  -0.3750000), wk =   0.0312500
        k(   50) = (  -0.2500000   0.7500000   0.5000000), wk =   0.0312500
        k(   51) = (  -0.2500000   1.0000000   0.7500000), wk =   0.0156250
        k(   52) = (   1.0000000   0.7500000  -0.2500000), wk =   0.0156250
        k(   53) = (  -0.1250000   0.8750000   0.6250000), wk =   0.0312500
        k(   54) = (   0.8750000   0.6250000  -0.1250000), wk =   0.0312500
        k(   55) = (   0.0000000   0.7500000   0.5000000), wk =   0.0156250
        k(   56) = (   0.7500000   0.5000000   0.0000000), wk =   0.0156250
        k(   57) = (  -1.0000000   0.0000000  -0.2500000), wk =   0.0078125
        k(   58) = (   0.0000000  -0.2500000  -1.0000000), wk =   0.0078125
        k(   59) = (  -1.0000000   0.0000000  -0.5000000), wk =   0.0078125

     Dense  grid:     6735 G-vectors     FFT dimensions: (  27,  27,  27)

     Smooth grid:     1243 G-vectors     FFT dimensions: (  15,  15,  15)

     Largest allocated arrays     est. size (Mb)     dimensions
        Kohn-Sham Wavefunctions         0.06 Mb     (     186,   20)
        NL pseudopotentials             0.02 Mb     (      93,   13)
        Each V/rho on FFT grid          0.16 Mb     (   10206)
        Each G-vector array             0.03 Mb     (    3368)
        G-vector shells                 0.00 Mb     (     118)
     Largest temporary arrays     est. size (Mb)     dimensions
        Auxiliary wavefunctions         0.23 Mb     (     186,   80)
        Each subspace H/S matrix        0.10 Mb     (      80,   80)
        Each <psi_i|beta_j> matrix      0.01 Mb     (      13,   2,   20)
        Arrays for rho mixing           1.25 Mb     (   10206,    8)

     Initial potential from superposition of free atoms

     starting charge   10.99968, renormalised to   11.00000

 ==============================================================================
     atom number    1 relative position :    0.0000   0.0000   0.0000
     charge :     9.993053
     magnetization :          4.996526    0.000000    0.000000
     magnetization/charge:    0.500000    0.000000    0.000000
     polar coord.: r, theta, phi [deg] :     4.996526   90.000000    0.000000

 ==============================================================================
     Starting wfc are   12 randomized atomic wfcs +    8 random wfc

     total cpu time spent up to now is        0.4 secs

     per-process dynamical memory:     8.8 Mb

     Self-consistent Calculation

     iteration #  1     ecut=    25.00 Ry     beta=0.70
     Davidson diagonalization with overlap
     ethr =  1.00E-02,  avg # of iterations =  5.2

     total cpu time spent up to now is        2.0 secs

     total energy              =     -87.34573342 Ry
     Harris-Foulkes estimate   =     -87.48173972 Ry
     estimated scf accuracy    <       0.86899981 Ry

     total magnetization       =     1.18     0.00     0.00 Bohr mag/cell
     absolute magnetization    =     1.35 Bohr mag/cell

     iteration #  2     ecut=    25.00 Ry     beta=0.70
     Davidson diagonalization with overlap
     ethr =  7.90E-03,  avg # of iterations =  2.2

     total cpu time spent up to now is        2.8 secs

     total energy              =     -87.71580426 Ry
     Harris-Foulkes estimate   =     -87.94172373 Ry
     estimated scf accuracy    <       0.77410103 Ry

     total magnetization       =     0.15     0.00     0.00 Bohr mag/cell
     absolute magnetization    =     0.22 Bohr mag/cell

     iteration #  3     ecut=    25.00 Ry     beta=0.70
     Davidson diagonalization with overlap
     ethr =  7.04E-03,  avg # of iterations =  1.0

     negative rho (up, down):  0.000E+00 5.081E-05

     total cpu time spent up to now is        3.4 secs

     total energy              =     -87.82273557 Ry
     Harris-Foulkes estimate   =     -87.79539711 Ry
     estimated scf accuracy    <       0.06710231 Ry

     total magnetization       =     0.22     0.00     0.00 Bohr mag/cell
     absolute magnetization    =     0.31 Bohr mag/cell

     iteration #  4     ecut=    25.00 Ry     beta=0.70
     Davidson diagonalization with overlap
     ethr =  6.10E-04,  avg # of iterations =  2.1

     negative rho (up, down):  3.338E-06 5.081E-05

     total cpu time spent up to now is        4.2 secs

     total energy              =     -87.83585729 Ry
     Harris-Foulkes estimate   =     -87.84567995 Ry
     estimated scf accuracy    <       0.01986568 Ry

     total magnetization       =    -0.03    -0.00     0.00 Bohr mag/cell
     absolute magnetization    =     0.03 Bohr mag/cell

     iteration #  5     ecut=    25.00 Ry     beta=0.70
     Davidson diagonalization with overlap
     ethr =  1.81E-04,  avg # of iterations =  1.2

     total cpu time spent up to now is        4.9 secs

     total energy              =     -87.84026438 Ry
     Harris-Foulkes estimate   =     -87.84018631 Ry
     estimated scf accuracy    <       0.00018765 Ry

     total magnetization       =    -0.03     0.00    -0.00 Bohr mag/cell
     absolute magnetization    =     0.03 Bohr mag/cell

     iteration #  6     ecut=    25.00 Ry     beta=0.70
     Davidson diagonalization with overlap
     ethr =  1.71E-06,  avg # of iterations =  2.6

     total cpu time spent up to now is        5.7 secs

     total energy              =     -87.84038530 Ry
     Harris-Foulkes estimate   =     -87.84037683 Ry
     estimated scf accuracy    <       0.00000927 Ry

     total magnetization       =     0.00    -0.00    -0.00 Bohr mag/cell
     absolute magnetization    =     0.01 Bohr mag/cell

     iteration #  7     ecut=    25.00 Ry     beta=0.70
     Davidson diagonalization with overlap
     ethr =  8.43E-08,  avg # of iterations =  1.3

     total cpu time spent up to now is        6.4 secs

     total energy              =     -87.84038823 Ry
     Harris-Foulkes estimate   =     -87.84038778 Ry
     estimated scf accuracy    <       0.00000164 Ry

     total magnetization       =     0.00    -0.00     0.00 Bohr mag/cell
     absolute magnetization    =     0.00 Bohr mag/cell

     iteration #  8     ecut=    25.00 Ry     beta=0.70
     Davidson diagonalization with overlap
     ethr =  1.49E-08,  avg # of iterations =  2.0

 ==============================================================================
     atom number    1 relative position :    0.0000   0.0000   0.0000
     charge :     9.813861
     magnetization :         -0.000101   -0.000000   -0.000000
     magnetization/charge:   -0.000010   -0.000000   -0.000000
     polar coord.: r, theta, phi [deg] :     0.000101   90.000000 -180.000000

 ==============================================================================

     total cpu time spent up to now is        7.2 secs

     End of self-consistent calculation

          k = 0.0000 0.0000 0.0000 (   169 PWs)   bands (ev):

     4.9899   4.9909  11.2118  11.2118  11.2118  11.2121  11.2121  11.2121
    12.1015  12.1015  12.1018  12.1018  38.8589  38.8601  41.0132  41.0132
    41.0132  41.0142  41.0142  41.0142

          k =-0.1250 0.1250-0.1250 (   165 PWs)   bands (ev):

     5.5706   5.5717  11.0970  11.0973  11.3136  11.3136  11.3139  11.3139
    12.0710  12.0710  12.0713  12.0713  34.2721  34.2731  39.2711  39.2723
    39.7092  39.7092  39.7101  39.7101

          k =-0.2500 0.2500-0.2500 (   156 PWs)   bands (ev):

     7.1555   7.1565  10.9620  10.9624  11.3819  11.3819  11.3823  11.3823
    12.1937  12.1937  12.1940  12.1940  27.5295  27.5305  38.3745  38.3745
    38.3754  38.3754  38.4648  38.4661

          k =-0.3750 0.3750-0.3750 (   159 PWs)   bands (ev):

     8.7622   8.7629  11.2521  11.2521  11.2524  11.2524  11.7761  11.7768
    12.5423  12.5423  12.5426  12.5426  21.8073  21.8081  37.4522  37.4534
    37.7378  37.7378  37.7387  37.7387

          k = 0.5000-0.5000 0.5000 (   156 PWs)   bands (ev):

     9.1193   9.1199  11.1772  11.1772  11.1775  11.1775  12.7172  12.7172
    12.7174  12.7174  13.4635  13.4646  18.6469  18.6475  37.0195  37.0208
    37.6118  37.6118  37.6127  37.6127

          k = 0.0000 0.2500 0.0000 (   165 PWs)   bands (ev):

     5.7617   5.7627  10.9829  10.9832  11.4051  11.4051  11.4054  11.4054
    11.9005  11.9009  12.1874  12.1877  36.7465  36.7465  36.7474  36.7474
    36.7674  36.7685  38.6737  38.6747

          k =-0.1250 0.3750-0.1250 (   160 PWs)   bands (ev):

     7.0143   7.0153  10.7592  10.7595  11.4423  11.4426  11.5633  11.5636
    11.9840  11.9843  12.3195  12.3198  30.0795  30.0804  34.8366  34.8375
    36.4459  36.4470  38.9421  38.9431

          k =-0.2500 0.5000-0.2500 (   158 PWs)   bands (ev):

     8.7312   8.7321  10.8357  10.8362  11.1911  11.1915  11.4996  11.4999
    12.6049  12.6052  12.8155  12.8159  23.9451  23.9459  34.0870  34.0879
    34.9382  34.9393  36.6381  36.6390

          k = 0.6250-0.3750 0.6250 (   163 PWs)   bands (ev):

     9.3901   9.3907  10.9731  10.9735  11.3805  11.3808  11.6282  11.6287
    12.7292  12.7295  14.6434  14.6441  19.3254  19.3261  32.8144  32.8154
    34.6299  34.6308  36.4062  36.4072

          k = 0.5000-0.2500 0.5000 (   161 PWs)   bands (ev):

     9.3177   9.3184  11.0467  11.0471  11.3797  11.3800  11.4897  11.4902
    12.4959  12.4962  14.0604  14.0610  20.5869  20.5876  31.5898  31.5908
    36.5326  36.5335  37.3108  37.3119

          k = 0.3750-0.1250 0.3750 (   159 PWs)   bands (ev):

     8.2145   8.2154  10.8164  10.8168  11.2661  11.2664  11.5179  11.5182
    12.0425  12.0428  12.8330  12.8333  25.8884  25.8893  31.4959  31.4969
    39.3191  39.3202  39.7098  39.7107

          k = 0.2500 0.0000 0.2500 (   160 PWs)   bands (ev):

     6.4953   6.4963  10.9085  10.9088  11.4022  11.4025  11.4843  11.4846
    11.8805  11.8808  12.2899  12.2902  32.0426  32.0435  32.7831  32.7841
    41.5259  41.5271  42.4810  42.4821

          k = 0.0000 0.5000 0.0000 (   165 PWs)   bands (ev):

     7.7947   7.7957  10.4446  10.4450  11.6422  11.6426  11.9304  11.9304
    11.9307  11.9307  12.3966  12.3969  32.3403  32.3403  32.3412  32.3412
    33.7605  33.7616  34.5459  34.5469

          k =-0.1250 0.6250-0.1250 (   162 PWs)   bands (ev):

     9.0258   9.0266  10.2437  10.2441  11.4594  11.4598  12.0303  12.0306
    12.6335  12.6337  12.9941  12.9946  26.9796  26.9805  30.3547  30.3556
    31.0989  31.0999  35.0382  35.0391

          k = 0.7500-0.2500 0.7500 (   158 PWs)   bands (ev):

     9.7740   9.7746  10.3372  10.3376  11.2737  11.2741  11.9055  11.9058
    12.7610  12.7612  15.5344  15.5351  21.6028  21.6036  27.6763  27.6772
    31.3024  31.3033  35.1339  35.1349

          k = 0.6250-0.1250 0.6250 (   162 PWs)   bands (ev):

    10.0261  10.0266  10.5346  10.5351  11.0774  11.0778  11.8006  11.8010
    12.5180  12.5183  16.7780  16.7788  20.0957  20.0965  26.0436  26.0445
    32.9722  32.9731  35.8425  35.8435

          k = 0.5000 0.0000 0.5000 (   164 PWs)   bands (ev):

     9.6302   9.6310  10.6867  10.6871  10.9041  10.9045  11.7535  11.7539
    12.1034  12.1036  14.2121  14.2126  24.5985  24.5994  26.0264  26.0273
    35.8998  35.9007  37.3879  37.3890

          k = 0.0000 0.7500 0.0000 (   162 PWs)   bands (ev):

     9.2114   9.2121   9.9259   9.9263  12.5650  12.5650  12.5653  12.5653
    12.6088  12.6091  13.2897  13.2905  26.4724  26.4733  29.3001  29.3001
    29.3010  29.3010  33.3091  33.3101

          k = 0.8750-0.1250 0.8750 (   164 PWs)   bands (ev):

     9.4573   9.4579   9.8804   9.8808  12.2120  12.2123  12.4812  12.4815
    12.8062  12.8065  15.9154  15.9162  23.7243  23.7252  25.2531  25.2540
    29.0133  29.0143  34.1901  34.1910

          k = 0.7500 0.0000 0.7500 (   168 PWs)   bands (ev):

     9.8690   9.8694  10.1174  10.1179  11.5170  11.5174  12.2489  12.2492
    12.6607  12.6609  19.0080  19.0088  20.5166  20.5175  22.9156  22.9164
    30.3249  30.3258  34.7842  34.7852

          k = 0.0000-1.0000 0.0000 (   150 PWs)   bands (ev):

     9.2658   9.2664   9.7169   9.7173  12.6974  12.6977  12.8720  12.8720
    12.8723  12.8723  16.0642  16.0652  22.1119  22.1127  28.1798  28.1798
    28.1807  28.1807  32.9248  32.9257

          k =-0.2500 0.5000 0.0000 (   156 PWs)   bands (ev):

     8.3848   8.3857  10.5343  10.5347  11.2125  11.2128  11.9396  11.9399
    11.9923  11.9927  12.8707  12.8711  28.3801  28.3810  29.1683  29.1693
    34.7034  34.7044  39.7252  39.7262

          k = 0.6250-0.3750 0.8750 (   161 PWs)   bands (ev):

     9.6573   9.6580  10.6135  10.6139  10.9349  10.9353  11.8099  11.8102
    12.4702  12.4705  14.3853  14.3858  22.9175  22.9183  28.5926  28.5935
    31.6517  31.6526  39.6660  39.6670

          k = 0.5000-0.2500 0.7500 (   164 PWs)   bands (ev):

     9.8974   9.8979  10.5965  10.5969  11.1684  11.1688  11.6977  11.6980
    12.6584  12.6587  16.6932  16.6941  19.1456  19.1463  29.3157  29.3167
    29.7922  29.7931  39.3670  39.3680

          k = 0.7500-0.2500 1.0000 (   166 PWs)   bands (ev):

     9.6203   9.6209  10.1239  10.1243  11.4254  11.4259  12.4031  12.4034
    12.5611  12.5614  14.7941  14.7947  25.8719  25.8729  26.6518  26.6528
    27.2676  27.2685  37.8998  37.9009

          k = 0.6250-0.1250 0.8750 (   161 PWs)   bands (ev):

    10.0008  10.0013  10.2737  10.2742  11.1332  11.1336  12.1348  12.1352
    12.7444  12.7446  18.0199  18.0208  21.2274  21.2283  24.7958  24.7967
    27.1031  27.1040  39.0192  39.0202

          k = 0.5000 0.0000 0.7500 (   158 PWs)   bands (ev):

    10.2797  10.2803  10.4646  10.4651  10.7103  10.7107  12.0136  12.0139
    12.5653  12.5655  17.1293  17.1300  21.9670  21.9679  24.2086  24.2095
    28.8756  28.8765  40.2133  40.2143

          k =-0.2500-1.0000 0.0000 (   164 PWs)   bands (ev):

     9.6008   9.6013   9.9540   9.9545  11.8937  11.8941  12.4336  12.4339
    12.8723  12.8725  17.7247  17.7257  22.3938  22.3946  24.9307  24.9316
    26.0249  26.0258  37.2961  37.2971

          k =-0.5000-1.0000 0.0000 (   156 PWs)   bands (ev):

    10.0366  10.0371  10.6869  10.6869  10.6873  10.6873  12.0681  12.0684
    12.8727  12.8729  20.9532  20.9532  20.9541  20.9541  23.1352  23.1361
    24.0560  24.0567  44.6548  44.6549

          k = 0.2500 0.0000 0.0000 (   165 PWs)   bands (ev):

     5.7617   5.7627  10.9829  10.9832  11.4051  11.4051  11.4054  11.4054
    11.9005  11.9009  12.1874  12.1877  36.7465  36.7465  36.7474  36.7474
    36.7674  36.7685  38.6737  38.6747

          k = 0.3750-0.1250-0.1250 (   160 PWs)   bands (ev):

     7.0143   7.0153  10.7592  10.7595  11.4423  11.4426  11.5633  11.5636
    11.9840  11.9843  12.3195  12.3198  30.0795  30.0804  34.8366  34.8375
    36.4459  36.4470  38.9421  38.9431

          k = 0.5000-0.2500-0.2500 (   158 PWs)   bands (ev):

     8.7312   8.7321  10.8357  10.8362  11.1911  11.1915  11.4996  11.4999
    12.6049  12.6052  12.8155  12.8159  23.9451  23.9459  34.0870  34.0879
    34.9382  34.9393  36.6381  36.6390

          k =-0.3750 0.6250 0.6250 (   163 PWs)   bands (ev):

     9.3901   9.3907  10.9731  10.9735  11.3805  11.3808  11.6282  11.6287
    12.7292  12.7295  14.6434  14.6441  19.3254  19.3261  32.8144  32.8154
    34.6299  34.6308  36.4062  36.4072

          k =-0.2500 0.5000 0.5000 (   161 PWs)   bands (ev):

     9.3177   9.3184  11.0467  11.0471  11.3797  11.3800  11.4897  11.4902
    12.4959  12.4962  14.0604  14.0610  20.5869  20.5876  31.5898  31.5908
    36.5326  36.5335  37.3108  37.3119

          k =-0.1250 0.3750 0.3750 (   159 PWs)   bands (ev):

     8.2145   8.2154  10.8164  10.8168  11.2661  11.2664  11.5179  11.5182
    12.0425  12.0428  12.8330  12.8333  25.8884  25.8893  31.4959  31.4969
    39.3191  39.3202  39.7098  39.7107

          k = 0.0000 0.2500 0.2500 (   160 PWs)   bands (ev):

     6.4953   6.4963  10.9085  10.9088  11.4022  11.4025  11.4843  11.4846
    11.8805  11.8808  12.2899  12.2902  32.0426  32.0435  32.7831  32.7841
    41.5259  41.5271  42.4821  43.1470

          k = 0.5000 0.0000 0.0000 (   165 PWs)   bands (ev):

     7.7947   7.7957  10.4446  10.4450  11.6422  11.6426  11.9304  11.9304
    11.9307  11.9307  12.3966  12.3969  32.3403  32.3403  32.3412  32.3412
    33.7605  33.7616  34.5459  34.5469

          k = 0.6250-0.1250-0.1250 (   162 PWs)   bands (ev):

     9.0258   9.0266  10.2437  10.2441  11.4594  11.4598  12.0303  12.0306
    12.6335  12.6337  12.9941  12.9946  26.9796  26.9805  30.3547  30.3556
    31.0989  31.0999  35.0382  35.0391

          k =-0.2500 0.7500 0.7500 (   158 PWs)   bands (ev):

     9.7740   9.7746  10.3372  10.3376  11.2737  11.2741  11.9055  11.9058
    12.7610  12.7612  15.5344  15.5351  21.6028  21.6036  27.6763  27.6772
    31.3024  31.3033  35.1339  35.1349

          k =-0.1250 0.6250 0.6250 (   162 PWs)   bands (ev):

    10.0261  10.0266  10.5346  10.5351  11.0774  11.0778  11.8006  11.8010
    12.5180  12.5183  16.7780  16.7788  20.0957  20.0965  26.0436  26.0445
    32.9722  32.9731  35.8425  35.8435

          k = 0.0000 0.5000 0.5000 (   164 PWs)   bands (ev):

     9.6302   9.6310  10.6867  10.6871  10.9041  10.9045  11.7535  11.7539
    12.1034  12.1036  14.2121  14.2126  24.5985  24.5994  26.0264  26.0273
    35.8998  35.9007  37.3879  37.3890

          k = 0.7500 0.0000 0.0000 (   162 PWs)   bands (ev):

     9.2114   9.2121   9.9259   9.9263  12.5650  12.5650  12.5653  12.5653
    12.6088  12.6091  13.2897  13.2905  26.4724  26.4733  29.3001  29.3001
    29.3010  29.3010  33.3091  33.3101

          k =-0.1250 0.8750 0.8750 (   164 PWs)   bands (ev):

     9.4573   9.4579   9.8804   9.8808  12.2120  12.2123  12.4812  12.4815
    12.8062  12.8065  15.9154  15.9162  23.7243  23.7252  25.2531  25.2540
    29.0133  29.0143  34.1901  34.1910

          k = 0.0000 0.7500 0.7500 (   168 PWs)   bands (ev):

     9.8690   9.8694  10.1174  10.1179  11.5170  11.5174  12.2489  12.2492
    12.6607  12.6609  19.0080  19.0088  20.5166  20.5175  22.9156  22.9164
    30.3249  30.3258  34.7842  34.7852

          k =-1.0000 0.0000 0.0000 (   150 PWs)   bands (ev):

     9.2658   9.2664   9.7169   9.7173  12.6974  12.6977  12.8720  12.8720
    12.8723  12.8723  16.0642  16.0652  22.1119  22.1127  28.1798  28.1798
    28.1807  28.1807  32.9248  32.9257

          k = 0.5000 0.0000-0.2500 (   156 PWs)   bands (ev):

     8.3848   8.3857  10.5343  10.5347  11.2125  11.2128  11.9396  11.9399
    11.9923  11.9927  12.8707  12.8711  28.3801  28.3810  29.1683  29.1693
    34.7034  34.7044  39.7263  41.2665

          k = 0.0000-0.2500 0.5000 (   156 PWs)   bands (ev):

     8.3848   8.3857  10.5343  10.5347  11.2125  11.2128  11.9396  11.9399
    11.9923  11.9927  12.8707  12.8711  28.3801  28.3810  29.1683  29.1693
    34.7034  34.7044  39.7252  39.7262

          k =-0.3750 0.8750 0.6250 (   161 PWs)   bands (ev):

     9.6573   9.6580  10.6135  10.6139  10.9349  10.9353  11.8099  11.8102
    12.4702  12.4705  14.3853  14.3858  22.9175  22.9183  28.5926  28.5935
    31.6517  31.6526  39.6660  39.6670

          k = 0.8750 0.6250-0.3750 (   161 PWs)   bands (ev):

     9.6573   9.6580  10.6135  10.6139  10.9349  10.9353  11.8099  11.8102
    12.4702  12.4705  14.3853  14.3858  22.9175  22.9183  28.5926  28.5935
    31.6517  31.6526  39.6660  39.6670

          k =-0.2500 0.7500 0.5000 (   164 PWs)   bands (ev):

     9.8974   9.8979  10.5965  10.5969  11.1684  11.1688  11.6977  11.6980
    12.6584  12.6587  16.6932  16.6941  19.1456  19.1463  29.3157  29.3167
    29.7922  29.7931  39.3670  39.3680

          k =-0.2500 1.0000 0.7500 (   166 PWs)   bands (ev):

     9.6203   9.6209  10.1239  10.1243  11.4254  11.4259  12.4031  12.4034
    12.5611  12.5614  14.7941  14.7947  25.8719  25.8729  26.6518  26.6528
    27.2676  27.2685  37.8998  37.9009

          k = 1.0000 0.7500-0.2500 (   166 PWs)   bands (ev):

     9.6203   9.6209  10.1239  10.1243  11.4254  11.4259  12.4031  12.4034
    12.5611  12.5614  14.7941  14.7947  25.8719  25.8729  26.6518  26.6528
    27.2676  27.2685  37.8998  37.9009

          k =-0.1250 0.8750 0.6250 (   161 PWs)   bands (ev):

    10.0008  10.0013  10.2737  10.2742  11.1332  11.1336  12.1348  12.1352
    12.7444  12.7446  18.0199  18.0208  21.2274  21.2283  24.7958  24.7967
    27.1031  27.1040  39.0192  39.0202

          k = 0.8750 0.6250-0.1250 (   161 PWs)   bands (ev):

    10.0008  10.0013  10.2737  10.2742  11.1332  11.1336  12.1348  12.1352
    12.7444  12.7446  18.0199  18.0208  21.2274  21.2283  24.7958  24.7967
    27.1031  27.1040  39.0192  39.0202

          k = 0.0000 0.7500 0.5000 (   158 PWs)   bands (ev):

    10.2797  10.2803  10.4646  10.4651  10.7103  10.7107  12.0136  12.0139
    12.5653  12.5655  17.1293  17.1300  21.9670  21.9679  24.2086  24.2095
    28.8756  28.8765  40.2133  40.2143

          k = 0.7500 0.5000 0.0000 (   158 PWs)   bands (ev):

    10.2797  10.2803  10.4646  10.4651  10.7103  10.7107  12.0136  12.0139
    12.5653  12.5655  17.1293  17.1300  21.9670  21.9679  24.2086  24.2095
    28.8756  28.8765  40.2133  40.2143

          k =-1.0000 0.0000-0.2500 (   164 PWs)   bands (ev):

     9.6008   9.6013   9.9540   9.9545  11.8937  11.8941  12.4336  12.4339
    12.8723  12.8725  17.7247  17.7257  22.3938  22.3946  24.9307  24.9316
    26.0249  26.0258  37.2961  37.2971

          k = 0.0000-0.2500-1.0000 (   164 PWs)   bands (ev):

     9.6008   9.6013   9.9540   9.9545  11.8937  11.8941  12.4336  12.4339
    12.8723  12.8725  17.7247  17.7257  22.3938  22.3946  24.9307  24.9316
    26.0249  26.0258  37.2961  37.2971

          k =-1.0000 0.0000-0.5000 (   156 PWs)   bands (ev):

    10.0366  10.0371  10.6869  10.6869  10.6873  10.6873  12.0681  12.0684
    12.8727  12.8729  20.9532  20.9532  20.9541  20.9541  23.1352  23.1361
    24.0560  24.0567  44.6548  44.6550

     the Fermi energy is    14.4912 ev

!    total energy              =     -87.84038898 Ry
     Harris-Foulkes estimate   =     -87.84038896 Ry
     estimated scf accuracy    <          2.6E-09 Ry

     The total energy is the sum of the following terms:

     one-electron contribution =     -10.24919873 Ry
     hartree contribution      =      18.89890922 Ry
     xc contribution           =     -14.05781959 Ry
     ewald contribution        =     -82.43214130 Ry
     smearing contrib. (-TS)   =      -0.00013857 Ry

     total magnetization       =    -0.00    -0.00     0.00 Bohr mag/cell
     absolute magnetization    =     0.00 Bohr mag/cell

     convergence has been achieved in   8 iterations

     Writing output data file cu.save
 
     init_run     :      0.40s CPU      0.42s WALL (       1 calls)
     electrons    :      6.56s CPU      6.75s WALL (       1 calls)

     Called by init_run:
     wfcinit      :      0.21s CPU      0.22s WALL (       1 calls)
     potinit      :      0.01s CPU      0.01s WALL (       1 calls)

     Called by electrons:
     c_bands      :      5.36s CPU      5.51s WALL (       8 calls)
     sum_band     :      1.09s CPU      1.13s WALL (       8 calls)
     v_of_rho     :      0.03s CPU      0.03s WALL (       9 calls)
     newd         :      0.05s CPU      0.05s WALL (       9 calls)
     mix_rho      :      0.02s CPU      0.02s WALL (       8 calls)

     Called by c_bands:
     init_us_2    :      0.02s CPU      0.03s WALL (    1003 calls)
     cegterg      :      5.24s CPU      5.38s WALL (     472 calls)

     Called by sum_band:
     sum_band:bec :      0.01s CPU      0.01s WALL (     472 calls)
     addusdens    :      0.16s CPU      0.16s WALL (       8 calls)

     Called by *egterg:
     h_psi        :      3.53s CPU      3.63s WALL (    1563 calls)
     s_psi        :      0.06s CPU      0.06s WALL (    1563 calls)
     g_psi        :      0.02s CPU      0.03s WALL (    1032 calls)
     cdiaghg      :      1.34s CPU      1.35s WALL (    1504 calls)

     Called by h_psi:
     add_vuspsi   :      0.07s CPU      0.07s WALL (    1563 calls)

     General routines
     calbec       :      0.11s CPU      0.09s WALL (    2035 calls)
     fft          :      0.06s CPU      0.05s WALL (     274 calls)
     ffts         :      0.00s CPU      0.00s WALL (      68 calls)
     fftw         :      2.97s CPU      3.14s WALL (  111060 calls)
     interpolate  :      0.02s CPU      0.02s WALL (      68 calls)
     davcio       :      0.00s CPU      0.00s WALL (      59 calls)
 
     Parallel routines
     fft_scatter  :      0.70s CPU      0.91s WALL (  111402 calls)
 
     PWSCF        :     7.13s CPU         7.36s WALL

 
   This run was terminated on:  11:21:15  15Jun2016            

=------------------------------------------------------------------------------=
   JOB DONE.
=------------------------------------------------------------------------------=
