
     Program PWSCF v.5.4.0 (svn rev. 12828M) starts on 23Aug2016 at 14:33: 6 

     This program is part of the open-source Quantum ESPRESSO suite
     for quantum simulation of materials; please cite
         "P. Giannozzi et al., J. Phys.:Condens. Matter 21 395502 (2009);
          URL http://www.quantum-espresso.org", 
     in publications or presentations arising from this work. More details at
     http://www.quantum-espresso.org/quote
 
           HOST :    x86_64-pc-linux-gnu
           ARCH :    x86_64
             CC :    icc
            CPP :    cpp
            F90 :    ifort
            F77 :    ifort
         DFLAGS :    -D__INTEL -D__FFTW -D__MPI -D__PARA -D__HDF5
      BLAS LIBS :    -lmkl_intel_lp64  -lmkl_sequential -lmkl_core
    LAPACK LIBS :    
       FFT LIBS :    
      MASS LIBS :    

     Parallel version (MPI), running on     2 processors
     R & G space division:  proc/nbgrp/npool/nimage =       2
     Waiting for input...
     Reading input from standard input
     Message from routine read_cards :
     DEPRECATED: no units specified in ATOMIC_POSITIONS card
     Message from routine read_cards :
     ATOMIC_POSITIONS: units set to alat

     Current dimensions of program PWSCF are:
     Max number of different atomic species (ntypx) = 10
     Max number of k-points (npk) =  40000
     Max angular momentum in pseudopotentials (lmaxx) =  3
               file Fe.pz-nd-rrkjus.UPF: wavefunction(s)  4S renormalized

     Subspace diagonalization in iterative solution of the eigenvalue problem:
     a serial algorithm will be used

 
     Parallelization info
     --------------------
     sticks:   dense  smooth     PW     G-vecs:    dense   smooth      PW
     Min         153      77     27                 1683      602     124
     Max         154      78     28                 1684      603     125
     Sum         307     155     55                 3367     1205     249
 


     bravais-lattice index     =            3
     lattice parameter (alat)  =       5.2170  a.u.
     unit-cell volume          =      70.9958 (a.u.)^3
     number of atoms/cell      =            1
     number of atomic types    =            1
     number of electrons       =         8.00
     number of Kohn-Sham states=           16
     kinetic-energy cutoff     =      25.0000  Ry
     charge density cutoff     =     200.0000  Ry
     convergence threshold     =      1.0E-08
     mixing beta               =       0.2000
     number of iterations used =            8  plain     mixing
     Exchange-correlation      =  SLA  PZ   NOGX NOGC ( 1  1  0  0 0 0)
     Noncollinear calculation without spin-orbit


     celldm(1)=   5.217000  celldm(2)=   0.000000  celldm(3)=   0.000000
     celldm(4)=   0.000000  celldm(5)=   0.000000  celldm(6)=   0.000000

     crystal axes: (cart. coord. in units of alat)
               a(1) = (   0.500000   0.500000   0.500000 )  
               a(2) = (  -0.500000   0.500000   0.500000 )  
               a(3) = (  -0.500000  -0.500000   0.500000 )  

     reciprocal axes: (cart. coord. in units 2 pi/alat)
               b(1) = (  1.000000  0.000000  1.000000 )  
               b(2) = ( -1.000000  1.000000  0.000000 )  
               b(3) = (  0.000000 -1.000000  1.000000 )  


     PseudoPot. # 1 for Fe read from file:
     /home/nvarini/espresso_hdf5/espresso/pseudo/Fe.pz-nd-rrkjus.UPF
     MD5 check sum: 2e083728ad07023434bc1cc596eb954d
     Pseudo is Ultrasoft + core correction, Zval =  8.0
     Generated by new atomic code, or converted to UPF format
     Using radial grid of  957 points,  6 beta functions with: 
                l(1) =   0
                l(2) =   0
                l(3) =   1
                l(4) =   1
                l(5) =   2
                l(6) =   2
     Q(r) pseudized with 0 coefficients 


     atomic species   valence    mass     pseudopotential
        Fe             8.00    55.84700     Fe( 1.00)

     16 Sym. Ops., with inversion, found



   Cartesian axes

     site n.     atom                  positions (alat units)
         1           Fe  tau(   1) = (   0.0000000   0.0000000   0.0000000  )

     number of k points=    22  Marzari-Vanderbilt smearing, width (Ry)=  0.0500
                       cart. coord. in units 2pi/alat
        k(    1) = (   0.0625000   0.0625000   0.0625000), wk =   0.0270270
        k(    2) = (   0.0625000   0.0625000   0.1875000), wk =   0.0540541
        k(    3) = (   0.0625000   0.0625000   0.3125000), wk =   0.0540541
        k(    4) = (   0.0625000   0.0625000   0.4375000), wk =   0.0540541
        k(    5) = (   0.0625000   0.0625000   0.5625000), wk =   0.0540541
        k(    6) = (   0.0625000   0.0625000   0.6875000), wk =   0.0540541
        k(    7) = (   0.0625000   0.0625000   0.8125000), wk =   0.0540541
        k(    8) = (   0.0625000   0.0625000   0.9375000), wk =   0.0810811
        k(    9) = (   0.0625000   0.1875000   0.1875000), wk =   0.0270270
        k(   10) = (   0.0625000   0.1875000   0.3125000), wk =   0.0540541
        k(   11) = (   0.0625000   0.1875000   0.4375000), wk =   0.0540541
        k(   12) = (   0.1875000   0.0625000   0.0625000), wk =   0.0270270
        k(   13) = (   0.3125000   0.0625000   0.0625000), wk =   0.0270270
        k(   14) = (   0.4375000   0.0625000   0.0625000), wk =   0.0270270
        k(   15) = (   0.5625000   0.0625000   0.0625000), wk =   0.0270270
        k(   16) = (   0.6875000   0.0625000   0.0625000), wk =   0.0270270
        k(   17) = (   0.8125000   0.0625000   0.0625000), wk =   0.0270270
        k(   18) = (   0.1875000   0.1875000   0.0625000), wk =   0.0540541
        k(   19) = (   0.1875000   0.3125000   0.0625000), wk =   0.0540541
        k(   20) = (   0.3125000   0.0625000   0.1875000), wk =   0.0540541
        k(   21) = (   0.1875000   0.4375000   0.0625000), wk =   0.0540541
        k(   22) = (   0.4375000   0.0625000   0.1875000), wk =   0.0540541

     Dense  grid:     3367 G-vectors     FFT dimensions: (  24,  24,  24)

     Smooth grid:     1205 G-vectors     FFT dimensions: (  15,  15,  15)

     Estimated max dynamical RAM per process >       4.76Mb

     Estimated total allocated dynamical RAM >       9.53Mb
     Generating pointlists ...
     new r_m :   0.3572 (alat units)  1.8637 (a.u.) for type    1

     Check: negative/imaginary core charge=   -0.000013    0.000000

     Initial potential from superposition of free atoms

     starting charge    7.99953, renormalised to    8.00000
     constraint energy (Ryd) =      0.00000000

 ==============================================================================
     atom number    1 relative position :    0.0000   0.0000   0.0000
     charge :     6.664635
     magnetization :          3.332318    0.000000    0.000000
     magnetization/charge:    0.500000    0.000000    0.000000
     polar coord.: r, theta, phi [deg] :     3.332318   90.000000    0.000000
     constrained theta [deg] :    90.000000

 ==============================================================================
     Starting wfc are   12 randomized atomic wfcs +    4 random wfc

     total cpu time spent up to now is        0.3 secs

     per-process dynamical memory:     6.4 Mb

     Self-consistent Calculation

     iteration #  1     ecut=    25.00 Ry     beta=0.20
     Davidson diagonalization with overlap
     ethr =  1.00E-02,  avg # of iterations =  4.3
     constraint energy (Ryd) =      0.00000000

 ==============================================================================
     atom number    1 relative position :    0.0000   0.0000   0.0000
     charge :     6.573092
     magnetization :          3.219550   -0.000000    0.000000
     magnetization/charge:    0.489808   -0.000000    0.000000
     polar coord.: r, theta, phi [deg] :     3.219550   90.000000    0.000000
     constrained theta [deg] :    90.000000

 ==============================================================================

     total cpu time spent up to now is        0.7 secs

     total energy              =     -55.69283637 Ry
     Harris-Foulkes estimate   =     -55.74057262 Ry
     estimated scf accuracy    <       0.20249291 Ry

     total magnetization       =     2.96    -0.00     0.00 Bohr mag/cell
     absolute magnetization    =     2.96 Bohr mag/cell
     lambda                    =       1.00 Ry

     iteration #  2     ecut=    25.00 Ry     beta=0.20
     Davidson diagonalization with overlap
     ethr =  2.53E-03,  avg # of iterations =  1.0
     constraint energy (Ryd) =      0.00000000

 ==============================================================================
     atom number    1 relative position :    0.0000   0.0000   0.0000
     charge :     6.450712
     magnetization :          3.068392    0.000000    0.000000
     magnetization/charge:    0.475667    0.000000    0.000000
     polar coord.: r, theta, phi [deg] :     3.068392   90.000000    0.000000
     constrained theta [deg] :    90.000000

 ==============================================================================

     total cpu time spent up to now is        0.9 secs

     total energy              =     -55.68004087 Ry
     Harris-Foulkes estimate   =     -55.70227283 Ry
     estimated scf accuracy    <       0.06293392 Ry

     total magnetization       =     3.05     0.00    -0.00 Bohr mag/cell
     absolute magnetization    =     3.05 Bohr mag/cell
     lambda                    =       1.00 Ry

     iteration #  3     ecut=    25.00 Ry     beta=0.20
     Davidson diagonalization with overlap
     ethr =  7.87E-04,  avg # of iterations =  2.0
     constraint energy (Ryd) =      0.00000000

 ==============================================================================
     atom number    1 relative position :    0.0000   0.0000   0.0000
     charge :     6.431719
     magnetization :          3.032821    0.000000    0.000000
     magnetization/charge:    0.471541    0.000000    0.000000
     polar coord.: r, theta, phi [deg] :     3.032821   90.000000    0.000000
     constrained theta [deg] :    90.000000

 ==============================================================================

     total cpu time spent up to now is        1.1 secs

     total energy              =     -55.69825047 Ry
     Harris-Foulkes estimate   =     -55.69348270 Ry
     estimated scf accuracy    <       0.00283792 Ry

     total magnetization       =     3.15     0.00     0.00 Bohr mag/cell
     absolute magnetization    =     3.15 Bohr mag/cell
     lambda                    =       1.00 Ry

     iteration #  4     ecut=    25.00 Ry     beta=0.20
     Davidson diagonalization with overlap
     ethr =  3.55E-05,  avg # of iterations =  3.8
     constraint energy (Ryd) =      0.00000000

 ==============================================================================
     atom number    1 relative position :    0.0000   0.0000   0.0000
     charge :     6.404769
     magnetization :          2.995906   -0.000000   -0.000000
     magnetization/charge:    0.467762   -0.000000   -0.000000
     polar coord.: r, theta, phi [deg] :     2.995906   90.000000    0.000000
     constrained theta [deg] :    90.000000

 ==============================================================================

     total cpu time spent up to now is        1.4 secs

     total energy              =     -55.69937915 Ry
     Harris-Foulkes estimate   =     -55.69892489 Ry
     estimated scf accuracy    <       0.00072687 Ry

     total magnetization       =     3.12    -0.00     0.00 Bohr mag/cell
     absolute magnetization    =     3.12 Bohr mag/cell
     lambda                    =       1.00 Ry

     iteration #  5     ecut=    25.00 Ry     beta=0.20
     Davidson diagonalization with overlap
     ethr =  9.09E-06,  avg # of iterations =  2.4
     constraint energy (Ryd) =      0.00000000

 ==============================================================================
     atom number    1 relative position :    0.0000   0.0000   0.0000
     charge :     6.413873
     magnetization :          3.018531   -0.000000    0.000000
     magnetization/charge:    0.470625   -0.000000    0.000000
     polar coord.: r, theta, phi [deg] :     3.018531   90.000000    0.000000
     constrained theta [deg] :    90.000000

 ==============================================================================

     total cpu time spent up to now is        1.7 secs

     total energy              =     -55.69964996 Ry
     Harris-Foulkes estimate   =     -55.69965752 Ry
     estimated scf accuracy    <       0.00004686 Ry

     total magnetization       =     3.13    -0.00     0.00 Bohr mag/cell
     absolute magnetization    =     3.13 Bohr mag/cell
     lambda                    =       1.00 Ry

     iteration #  6     ecut=    25.00 Ry     beta=0.20
     Davidson diagonalization with overlap
     ethr =  5.86E-07,  avg # of iterations =  3.1
     constraint energy (Ryd) =      0.00000000

 ==============================================================================
     atom number    1 relative position :    0.0000   0.0000   0.0000
     charge :     6.415219
     magnetization :          3.027471   -0.000000    0.000000
     magnetization/charge:    0.471920   -0.000000    0.000000
     polar coord.: r, theta, phi [deg] :     3.027471   90.000000    0.000000
     constrained theta [deg] :    90.000000

 ==============================================================================

     total cpu time spent up to now is        2.0 secs

     total energy              =     -55.69967491 Ry
     Harris-Foulkes estimate   =     -55.69967439 Ry
     estimated scf accuracy    <       0.00001954 Ry

     total magnetization       =     3.14    -0.00     0.00 Bohr mag/cell
     absolute magnetization    =     3.14 Bohr mag/cell
     lambda                    =       1.00 Ry

     iteration #  7     ecut=    25.00 Ry     beta=0.20
     Davidson diagonalization with overlap
     ethr =  2.44E-07,  avg # of iterations =  1.0
     constraint energy (Ryd) =      0.00000000

 ==============================================================================
     atom number    1 relative position :    0.0000   0.0000   0.0000
     charge :     6.411898
     magnetization :          3.056156    0.000000   -0.000000
     magnetization/charge:    0.476638    0.000000   -0.000000
     polar coord.: r, theta, phi [deg] :     3.056156   90.000000    0.000000
     constrained theta [deg] :    90.000000

 ==============================================================================

     total cpu time spent up to now is        2.2 secs

     total energy              =     -55.69966531 Ry
     Harris-Foulkes estimate   =     -55.69967679 Ry
     estimated scf accuracy    <       0.00001138 Ry

     total magnetization       =     3.15     0.00     0.00 Bohr mag/cell
     absolute magnetization    =     3.15 Bohr mag/cell
     lambda                    =       1.00 Ry

     iteration #  8     ecut=    25.00 Ry     beta=0.20
     Davidson diagonalization with overlap
     ethr =  1.42E-07,  avg # of iterations =  2.0
     constraint energy (Ryd) =      0.00000000

 ==============================================================================
     atom number    1 relative position :    0.0000   0.0000   0.0000
     charge :     6.412054
     magnetization :          3.064051    0.000000   -0.000000
     magnetization/charge:    0.477858    0.000000   -0.000000
     polar coord.: r, theta, phi [deg] :     3.064051   90.000000    0.000000
     constrained theta [deg] :    90.000000

 ==============================================================================

     total cpu time spent up to now is        2.4 secs

     total energy              =     -55.69968188 Ry
     Harris-Foulkes estimate   =     -55.69968222 Ry
     estimated scf accuracy    <       0.00000187 Ry

     total magnetization       =     3.17    -0.00     0.00 Bohr mag/cell
     absolute magnetization    =     3.17 Bohr mag/cell
     lambda                    =       1.00 Ry

     iteration #  9     ecut=    25.00 Ry     beta=0.20
     Davidson diagonalization with overlap
     ethr =  2.33E-08,  avg # of iterations =  2.5
     constraint energy (Ryd) =      0.00000000

 ==============================================================================
     atom number    1 relative position :    0.0000   0.0000   0.0000
     charge :     6.412364
     magnetization :          3.062786   -0.000000    0.000000
     magnetization/charge:    0.477638   -0.000000    0.000000
     polar coord.: r, theta, phi [deg] :     3.062786   90.000000    0.000000
     constrained theta [deg] :    90.000000

 ==============================================================================

     total cpu time spent up to now is        2.7 secs

     total energy              =     -55.69968326 Ry
     Harris-Foulkes estimate   =     -55.69968286 Ry
     estimated scf accuracy    <       0.00000052 Ry

     total magnetization       =     3.18    -0.00     0.00 Bohr mag/cell
     absolute magnetization    =     3.18 Bohr mag/cell
     lambda                    =       1.00 Ry

     iteration # 10     ecut=    25.00 Ry     beta=0.20
     Davidson diagonalization with overlap
     ethr =  6.48E-09,  avg # of iterations =  1.8
     constraint energy (Ryd) =      0.00000000

 ==============================================================================
     atom number    1 relative position :    0.0000   0.0000   0.0000
     charge :     6.412611
     magnetization :          3.063305   -0.000000    0.000000
     magnetization/charge:    0.477700   -0.000000    0.000000
     polar coord.: r, theta, phi [deg] :     3.063305   90.000000    0.000000
     constrained theta [deg] :    90.000000

 ==============================================================================

     total cpu time spent up to now is        2.9 secs

     total energy              =     -55.69968368 Ry
     Harris-Foulkes estimate   =     -55.69968335 Ry
     estimated scf accuracy    <       0.00000005 Ry

     total magnetization       =     3.18    -0.00     0.00 Bohr mag/cell
     absolute magnetization    =     3.18 Bohr mag/cell
     lambda                    =       1.00 Ry

     iteration # 11     ecut=    25.00 Ry     beta=0.20
     Davidson diagonalization with overlap
     ethr =  6.86E-10,  avg # of iterations =  3.2
     constraint energy (Ryd) =      0.00000000

 ==============================================================================
     atom number    1 relative position :    0.0000   0.0000   0.0000
     charge :     6.412630
     magnetization :          3.063310   -0.000000    0.000000
     magnetization/charge:    0.477699   -0.000000    0.000000
     polar coord.: r, theta, phi [deg] :     3.063310   90.000000    0.000000
     constrained theta [deg] :    90.000000

 ==============================================================================

     total cpu time spent up to now is        3.2 secs

     End of self-consistent calculation

          k = 0.0625 0.0625 0.0625 (   141 PWs)   bands (ev):

     5.6976   6.4710  11.6773  11.6773  11.9041  13.4680  13.4680  14.6641
    14.6641  14.9256  16.5280  16.5281  38.7457  38.7457  39.4535  39.4536

          k = 0.0625 0.0625 0.1875 (   148 PWs)   bands (ev):

     6.3625   7.1448  11.5808  11.6588  12.2027  13.1726  13.6070  14.5300
    14.6022  15.2521  16.1626  16.7005  36.2586  37.2024  37.8445  38.7809

          k = 0.0625 0.0625 0.3125 (   152 PWs)   bands (ev):

     7.5615   8.3877  11.6163  11.6486  12.6210  12.6637  13.8659  14.4963
    14.5192  15.5613  15.7135  16.9736  33.8661  35.0496  35.4791  36.6426

          k = 0.0625 0.0625 0.4375 (   156 PWs)   bands (ev):

     8.9394   9.9421  11.4570  11.8360  12.3100  13.1163  14.0830  14.4085
    14.7054  15.2277  16.2731  17.3568  31.7404  32.7147  33.1542  34.0016

          k = 0.0625 0.0625 0.5625 (   148 PWs)   bands (ev):

     9.8490  10.8063  11.2898  12.1933  12.5752  13.2445  13.6125  15.0878
    15.5268  15.8163  16.8412  18.2393  29.6280  30.1011  31.1489  31.4631

          k = 0.0625 0.0625 0.6875 (   146 PWs)   bands (ev):

     9.9296  10.1060  11.8334  12.4094  12.7226  13.1739  14.0664  15.6755
    16.2010  17.3612  18.3362  20.1534  27.4633  27.7465  28.9140  29.0794

          k = 0.0625 0.0625 0.8125 (   144 PWs)   bands (ev):

     9.5654   9.5728  11.6859  11.7776  13.4304  13.8865  14.3759  16.5072
    17.0646  17.7257  21.5119  22.9168  25.5706  25.8420  26.8447  27.0460

          k = 0.0625 0.0625 0.9375 (   143 PWs)   bands (ev):

     9.2749   9.2749  11.4415  11.4416  14.0746  14.4153  14.4153  17.3223
    17.7665  17.7665  24.4157  24.4157  24.8001  25.5002  25.5002  25.8538

          k = 0.0625 0.1875 0.1875 (   151 PWs)   bands (ev):

     6.9744   7.7800  11.3180  11.5670  12.6777  13.2537  13.5300  14.2181
    14.4049  15.7704  16.2902  16.6105  33.9647  35.1500  36.7272  37.6011

          k = 0.0625 0.1875 0.3125 (   152 PWs)   bands (ev):

     8.0237   8.9277  11.1743  11.5495  13.0279  13.2371  13.7501  14.0192
    14.1912  16.0453  16.3837  16.8490  31.1771  32.5566  34.9136  35.9058

          k = 0.0625 0.1875 0.4375 (   153 PWs)   bands (ev):

     9.1040  10.3061  11.1873  11.5425  12.8521  13.6984  13.7935  14.1434
    14.4648  15.8365  16.9222  17.3636  28.6265  30.1620  32.6051  33.8030

          k = 0.1875 0.0625 0.0625 (   148 PWs)   bands (ev):

     6.3625   7.1448  11.5808  11.6588  12.2027  13.1726  13.6069  14.5300
    14.6021  15.2522  16.1627  16.7004  36.2587  37.2024  37.8445  38.7809

          k = 0.3125 0.0625 0.0625 (   152 PWs)   bands (ev):

     7.5615   8.3877  11.6163  11.6486  12.6211  12.6638  13.8658  14.4963
    14.5192  15.5613  15.7135  16.9735  33.8661  35.0496  35.4791  36.6426

          k = 0.4375 0.0625 0.0625 (   156 PWs)   bands (ev):

     8.9394   9.9421  11.4570  11.8360  12.3100  13.1163  14.0830  14.4084
    14.7054  15.2277  16.2731  17.3567  31.7404  32.7147  33.1542  34.0016

          k = 0.5625 0.0625 0.0625 (   148 PWs)   bands (ev):

     9.8490  10.8063  11.2898  12.1933  12.5752  13.2446  13.6126  15.0878
    15.5268  15.8162  16.8412  18.2392  29.6280  30.1011  31.1489  31.4631

          k = 0.6875 0.0625 0.0625 (   146 PWs)   bands (ev):

     9.9295  10.1060  11.8334  12.4095  12.7226  13.1738  14.0664  15.6755
    16.2010  17.3612  18.3362  20.1534  27.4633  27.7465  28.9140  29.0794

          k = 0.8125 0.0625 0.0625 (   144 PWs)   bands (ev):

     9.5654   9.5728  11.6859  11.7777  13.4304  13.8865  14.3759  16.5072
    17.0646  17.7257  21.5119  22.9168  25.5707  25.8420  26.8447  27.0460

          k = 0.1875 0.1875 0.0625 (   151 PWs)   bands (ev):

     6.9744   7.7800  11.3180  11.5670  12.6777  13.2538  13.5300  14.2181
    14.4049  15.7704  16.2902  16.6104  33.9647  35.1500  36.7272  37.6011

          k = 0.1875 0.3125 0.0625 (   152 PWs)   bands (ev):

     8.0237   8.9277  11.1743  11.5494  13.0279  13.2371  13.7501  14.0192
    14.1912  16.0453  16.3837  16.8490  31.1771  32.5566  34.9136  35.9058

          k = 0.3125 0.0625 0.1875 (   152 PWs)   bands (ev):

     8.0237   8.9277  11.1743  11.5494  13.0279  13.2371  13.7501  14.0192
    14.1912  16.0453  16.3838  16.8489  31.1771  32.5566  34.9136  35.9058

          k = 0.1875 0.4375 0.0625 (   153 PWs)   bands (ev):

     9.1040  10.3061  11.1873  11.5425  12.8521  13.6984  13.7935  14.1434
    14.4648  15.8365  16.9222  17.3636  28.6265  30.1620  32.6051  33.8030

          k = 0.4375 0.0625 0.1875 (   153 PWs)   bands (ev):

     9.1040  10.3061  11.1873  11.5425  12.8521  13.6984  13.7935  14.1434
    14.4648  15.8365  16.9222  17.3636  28.6265  30.1620  32.6051  33.8030

     the Fermi energy is    14.6622 ev

!    total energy              =     -55.69968434 Ry
     Harris-Foulkes estimate   =     -55.69968370 Ry
     estimated scf accuracy    <          1.0E-09 Ry

     The total energy is the sum of the following terms:

     one-electron contribution =       8.92933213 Ry
     hartree contribution      =       6.13364726 Ry
     xc contribution           =     -26.12194050 Ry
     ewald contribution        =     -44.64461207 Ry
     smearing contrib. (-TS)   =       0.00388884 Ry

     total magnetization       =     3.18    -0.00    -0.00 Bohr mag/cell
     absolute magnetization    =     3.18 Bohr mag/cell
     lambda                    =       1.00 Ry

     convergence has been achieved in  11 iterations

     Writing output data file fe.save
 
     init_run     :      0.26s CPU      0.28s WALL (       1 calls)
     electrons    :      2.79s CPU      2.87s WALL (       1 calls)

     Called by init_run:
     wfcinit      :      0.06s CPU      0.06s WALL (       1 calls)
     potinit      :      0.01s CPU      0.01s WALL (       1 calls)

     Called by electrons:
     c_bands      :      2.16s CPU      2.20s WALL (      11 calls)
     sum_band     :      0.53s CPU      0.56s WALL (      11 calls)
     v_of_rho     :      0.03s CPU      0.03s WALL (      12 calls)
     newd         :      0.05s CPU      0.05s WALL (      12 calls)
     mix_rho      :      0.01s CPU      0.01s WALL (      11 calls)

     Called by c_bands:
     init_us_2    :      0.02s CPU      0.02s WALL (     506 calls)
     cegterg      :      2.06s CPU      2.11s WALL (     242 calls)

     Called by sum_band:
     sum_band:bec :      0.00s CPU      0.01s WALL (     242 calls)
     addusdens    :      0.18s CPU      0.18s WALL (      11 calls)

     Called by *egterg:
     h_psi        :      1.42s CPU      1.44s WALL (     862 calls)
     s_psi        :      0.04s CPU      0.04s WALL (     862 calls)
     g_psi        :      0.01s CPU      0.01s WALL (     598 calls)
     cdiaghg      :      0.49s CPU      0.49s WALL (     840 calls)

     Called by h_psi:
     h_psi:pot    :      1.41s CPU      1.44s WALL (     862 calls)
     h_psi:calbec :      0.04s CPU      0.04s WALL (     862 calls)
     add_vuspsi   :      0.04s CPU      0.04s WALL (     862 calls)

     General routines
     calbec       :      0.06s CPU      0.05s WALL (    1104 calls)
     fft          :      0.03s CPU      0.04s WALL (     374 calls)
     ffts         :      0.00s CPU      0.00s WALL (      92 calls)
     fftw         :      1.21s CPU      1.26s WALL (   46196 calls)
     interpolate  :      0.01s CPU      0.01s WALL (      92 calls)
 
     Parallel routines
     fft_scatter  :      0.31s CPU      0.37s WALL (   46662 calls)
 
     PWSCF        :     3.19s CPU         3.30s WALL

 
   This run was terminated on:  14:33: 9  23Aug2016            

=------------------------------------------------------------------------------=
   JOB DONE.
=------------------------------------------------------------------------------=
