
     Program PWSCF v.5.4.0 (svn rev. 12547M) starts on 29Jun2016 at 17:51: 0 

     This program is part of the open-source Quantum ESPRESSO suite
     for quantum simulation of materials; please cite
         "P. Giannozzi et al., J. Phys.:Condens. Matter 21 395502 (2009);
          URL http://www.quantum-espresso.org", 
     in publications or presentations arising from this work. More details at
     http://www.quantum-espresso.org/quote
 
           HOST :    x86_64-pc-linux-gnu
           ARCH :    x86_64
             CC :    icc
            CPP :    cpp
            F90 :    gfortran
            F77 :    gfortran
         DFLAGS :    -D__GFORTRAN -D__STD_F95 -D__DFTI -D__MPI -D__PARA -D__HDF5
      BLAS LIBS :    -lmkl_gf_lp64  -lmkl_sequential -lmkl_core
    LAPACK LIBS :    
       FFT LIBS :    
      MASS LIBS :    

     Parallel version (MPI), running on     2 processors
     R & G space division:  proc/nbgrp/npool/nimage =       2
     Waiting for input...
     Reading input from standard input
     Message from routine read_cards :
     DEPRECATED: no units specified in ATOMIC_POSITIONS card
     Message from routine read_cards :
     ATOMIC_POSITIONS: units set to alat

     Current dimensions of program PWSCF are:
     Max number of different atomic species (ntypx) = 10
     Max number of k-points (npk) =  40000
     Max angular momentum in pseudopotentials (lmaxx) =  3

     Atomic positions and unit cell read from directory:
     /home/nvarini/espresso_hdf5/espresso/tempdir/fe.save/
 
               file Fe.pz-nd-rrkjus.UPF: wavefunction(s)  4S renormalized

     Subspace diagonalization in iterative solution of the eigenvalue problem:
     a serial algorithm will be used

 
     Parallelization info
     --------------------
     sticks:   dense  smooth     PW     G-vecs:    dense   smooth      PW
     Min         153      77     33                 1683      600     184
     Max         154      78     34                 1684      605     185
     Sum         307     155     67                 3367     1205     369
 
     Generating pointlists ...
     new r_m :   0.3572 (alat units)  1.8637 (a.u.) for type    1


     bravais-lattice index     =            3
     lattice parameter (alat)  =       5.2170  a.u.
     unit-cell volume          =      70.9958 (a.u.)^3
     number of atoms/cell      =            1
     number of atomic types    =            1
     number of electrons       =         8.00
     number of Kohn-Sham states=           16
     kinetic-energy cutoff     =      25.0000  Ry
     charge density cutoff     =     200.0000  Ry
     Exchange-correlation      =  SLA  PZ   NOGX NOGC ( 1  1  0  0 0 0)
     Noncollinear calculation without spin-orbit


     celldm(1)=   5.217000  celldm(2)=   0.000000  celldm(3)=   0.000000
     celldm(4)=   0.000000  celldm(5)=   0.000000  celldm(6)=   0.000000

     crystal axes: (cart. coord. in units of alat)
               a(1) = (   0.500000   0.500000   0.500000 )  
               a(2) = (  -0.500000   0.500000   0.500000 )  
               a(3) = (  -0.500000  -0.500000   0.500000 )  

     reciprocal axes: (cart. coord. in units 2 pi/alat)
               b(1) = (  1.000000  0.000000  1.000000 )  
               b(2) = ( -1.000000  1.000000  0.000000 )  
               b(3) = (  0.000000 -1.000000  1.000000 )  


     PseudoPot. # 1 for Fe read from file:
     /home/nvarini/espresso_hdf5/espresso/pseudo/Fe.pz-nd-rrkjus.UPF
     MD5 check sum: 2e083728ad07023434bc1cc596eb954d
     Pseudo is Ultrasoft + core correction, Zval =  8.0
     Generated by new atomic code, or converted to UPF format
     Using radial grid of  957 points,  6 beta functions with: 
                l(1) =   0
                l(2) =   0
                l(3) =   1
                l(4) =   1
                l(5) =   2
                l(6) =   2
     Q(r) pseudized with 0 coefficients 


     atomic species   valence    mass     pseudopotential
        Fe             8.00    55.84700     Fe( 1.00)

     16 Sym. Ops., with inversion, found



   Cartesian axes

     site n.     atom                  positions (alat units)
         1           Fe  tau(   1) = (   0.0000000   0.0000000   0.0000000  )

     number of k points=    28
                       cart. coord. in units 2pi/alat
        k(    1) = (   0.0000000   0.0000000   0.0000000), wk =   0.0357143
        k(    2) = (   0.0000000   0.0000000   0.1000000), wk =   0.0357143
        k(    3) = (   0.0000000   0.0000000   0.2000000), wk =   0.0357143
        k(    4) = (   0.0000000   0.0000000   0.3000000), wk =   0.0357143
        k(    5) = (   0.0000000   0.0000000   0.4000000), wk =   0.0357143
        k(    6) = (   0.0000000   0.0000000   0.5000000), wk =   0.0357143
        k(    7) = (   0.0000000   0.0000000   0.6000000), wk =   0.0357143
        k(    8) = (   0.0000000   0.0000000   0.7000000), wk =   0.0357143
        k(    9) = (   0.0000000   0.0000000   0.8000000), wk =   0.0357143
        k(   10) = (   0.0000000   0.0000000   0.9000000), wk =   0.0357143
        k(   11) = (   0.0000000   0.0000000   1.0000000), wk =   0.0357143
        k(   12) = (   0.0000000   0.0000000   0.0000000), wk =   0.0357143
        k(   13) = (   0.0000000   0.1000000   0.1000000), wk =   0.0357143
        k(   14) = (   0.0000000   0.2000000   0.2000000), wk =   0.0357143
        k(   15) = (   0.0000000   0.3000000   0.3000000), wk =   0.0357143
        k(   16) = (   0.0000000   0.4000000   0.4000000), wk =   0.0357143
        k(   17) = (   0.0000000   0.5000000   0.5000000), wk =   0.0357143
        k(   18) = (   0.0000000   0.6000000   0.6000000), wk =   0.0357143
        k(   19) = (   0.0000000   0.7000000   0.7000000), wk =   0.0357143
        k(   20) = (   0.0000000   0.8000000   0.8000000), wk =   0.0357143
        k(   21) = (   0.0000000   0.9000000   0.9000000), wk =   0.0357143
        k(   22) = (   0.0000000   1.0000000   1.0000000), wk =   0.0357143
        k(   23) = (   0.0000000   0.0000000   0.0000000), wk =   0.0357143
        k(   24) = (   0.1000000   0.1000000   0.1000000), wk =   0.0357143
        k(   25) = (   0.2000000   0.2000000   0.2000000), wk =   0.0357143
        k(   26) = (   0.3000000   0.3000000   0.3000000), wk =   0.0357143
        k(   27) = (   0.4000000   0.4000000   0.4000000), wk =   0.0357143
        k(   28) = (   0.5000000   0.5000000   0.5000000), wk =   0.0357143

     Dense  grid:     3367 G-vectors     FFT dimensions: (  24,  24,  24)

     Smooth grid:     1205 G-vectors     FFT dimensions: (  15,  15,  15)

     Largest allocated arrays     est. size (Mb)     dimensions
        Kohn-Sham Wavefunctions         0.04 Mb     (     178,   16)
        NL pseudopotentials             0.02 Mb     (      89,   18)
        Each V/rho on FFT grid          0.11 Mb     (    6912)
        Each G-vector array             0.01 Mb     (    1684)
        G-vector shells                 0.00 Mb     (      64)
     Largest temporary arrays     est. size (Mb)     dimensions
        Auxiliary wavefunctions         0.17 Mb     (     178,   64)
        Each subspace H/S matrix        0.06 Mb     (      64,   64)
        Each <psi_i|beta_j> matrix      0.01 Mb     (      18,   2,   16)

     Check: negative/imaginary core charge=   -0.000013    0.000000

     The potential is recalculated from file :
     /home/nvarini/espresso_hdf5/espresso/tempdir/fe.save/charge-density.hdf5

     Starting wfc are   12 randomized atomic wfcs +    4 random wfc

     Band Structure Calculation
     Davidson diagonalization with overlap

     ethr =  1.25E-10,  avg # of iterations = 24.1

     total cpu time spent up to now is        2.4 secs

     End of band structure calculation

          k = 0.0000 0.0000 0.0000 (   141 PWs)   bands (ev):

     5.4382   6.2099  11.7312  11.7312  11.7313  13.5024  13.5024  14.7361
    14.7361  14.7362  16.5710  16.5711  39.7154  39.7154  39.7154  40.2525

          k = 0.0000 0.0000 0.1000 (   145 PWs)   bands (ev):

     5.6601   6.4331  11.7300  11.7300  11.7948  13.3923  13.5454  14.7245
    14.7245  14.8074  16.4312  16.6249  38.6082  39.2626  39.6020  39.6020

          k = 0.0000 0.0000 0.2000 (   148 PWs)   bands (ev):

     6.3036   7.0833  11.7407  11.7407  11.9804  13.0723  13.6680  14.7089
    14.7090  15.0156  16.0268  16.7722  36.7279  37.5581  38.8513  38.8513

          k = 0.0000 0.0000 0.3000 (   148 PWs)   bands (ev):

     7.2917   8.0976  11.8007  11.8007  12.2725  12.5742  13.8672  14.7382
    14.7382  15.3441  15.4032  16.9806  35.0347  36.0467  37.0955  37.0955

          k = 0.0000 0.0000 0.4000 (   152 PWs)   bands (ev):

     8.4527   9.3487  11.9503  11.9546  11.9546  12.6460  14.2041  14.6329
    14.8707  14.8707  15.7657  17.2412  33.6942  34.8195  34.8195  34.8894

          k = 0.0000 0.0000 0.5000 (   144 PWs)   bands (ev):

     9.4491  10.5969  11.2674  12.2381  12.2381  13.0672  13.8035  14.9150
    15.1547  15.1547  16.2432  17.6651  32.4506  32.4506  32.7002  33.8750

          k = 0.0000 0.0000 0.6000 (   152 PWs)   bands (ev):

     9.9020  10.5972  11.4732  12.6639  12.6639  13.0027  13.4959  15.6146
    15.6146  16.3272  16.7316  18.5594  30.1681  30.1682  31.5542  31.5542

          k = 0.0000 0.0000 0.7000 (   144 PWs)   bands (ev):

     9.8286  10.0053  11.7508  12.3059  13.2093  13.2094  13.8892  16.2378
    16.2378  17.1817  18.4379  20.1751  28.1104  28.1104  29.4065  29.4065

          k = 0.0000 0.0000 0.8000 (   144 PWs)   bands (ev):

     9.5311   9.5450  11.6227  11.7700  13.7985  13.7985  14.2057  16.9536
    16.9536  17.5454  20.9600  22.3495  26.4056  26.4056  27.5641  27.5641

          k = 0.0000 0.0000 0.9000 (   148 PWs)   bands (ev):

     9.2539   9.2598  11.4112  11.4337  14.2864  14.2864  14.4112  17.5913
    17.5914  17.7821  23.4738  24.5844  25.2367  25.2367  26.2379  26.2379

          k = 0.0000 0.0000 1.0000 (   164 PWs)   bands (ev):

     9.1545   9.1545  11.3192  11.3192  14.4821  14.4821  14.4821  17.8642
    17.8642  17.8642  24.8114  24.8114  24.8114  25.7334  25.7334  25.7334

          k = 0.0000 0.0000 0.0000 (   141 PWs)   bands (ev):

     5.4382   6.2099  11.7312  11.7312  11.7313  13.5024  13.5024  14.7361
    14.7361  14.7362  16.5710  16.5711  39.7154  39.7154  39.7154  40.2525

          k = 0.0000 0.1000 0.1000 (   146 PWs)   bands (ev):

     5.8774   6.6526  11.6055  11.7187  11.9803  13.3797  13.5132  14.5799
    14.6938  15.0112  16.4188  16.5845  37.6143  38.4547  39.1853  39.5874

          k = 0.0000 0.2000 0.2000 (   152 PWs)   bands (ev):

     7.0755   7.8897  11.2860  11.6486  12.6665  13.2220  13.5514  14.1868
    14.4463  15.7754  16.2586  16.6349  33.3778  34.6115  37.3445  38.0461

          k = 0.0000 0.3000 0.3000 (   156 PWs)   bands (ev):

     8.4475   9.5457  10.9090  11.9261  13.2784  13.5984  13.6206  13.7292
    14.1831  16.3723  16.7304  16.8302  28.7064  30.2417  35.2436  35.9136

          k = 0.0000 0.4000 0.4000 (   152 PWs)   bands (ev):

     8.9393  10.6170  10.6917  13.2987  13.3790  13.6559  13.6954  14.4417
    14.7946  16.5521  16.8371  17.8076  24.5234  26.4017  33.7640  34.3765

          k = 0.0000 0.5000 0.5000 (   150 PWs)   bands (ev):

     8.9469  10.5083  10.9320  13.2495  13.4555  13.7286  14.7912  14.9239
    15.6592  16.5748  16.8855  18.2209  22.4226  24.6180  33.2384  33.8247

          k = 0.0000 0.6000 0.6000 (   152 PWs)   bands (ev):

     8.9393  10.6170  10.6917  13.2987  13.3790  13.6559  13.6954  14.4417
    14.7946  16.5521  16.8371  17.8076  24.5234  26.4017  33.7640  34.3765

          k = 0.0000 0.7000 0.7000 (   156 PWs)   bands (ev):

     8.4475   9.5457  10.9090  11.9261  13.2784  13.5984  13.6206  13.7292
    14.1831  16.3723  16.7304  16.8302  28.7064  30.2417  35.2436  35.9136

          k = 0.0000 0.8000 0.8000 (   152 PWs)   bands (ev):

     7.0755   7.8897  11.2860  11.6486  12.6665  13.2220  13.5514  14.1868
    14.4463  15.7754  16.2586  16.6349  33.3778  34.6115  37.3445  38.0461

          k = 0.0000 0.9000 0.9000 (   146 PWs)   bands (ev):

     5.8774   6.6526  11.6055  11.7187  11.9803  13.3797  13.5132  14.5799
    14.6938  15.0112  16.4188  16.5845  37.6143  38.4547  39.1853  39.5874

          k = 0.0000 1.0000 1.0000 (   141 PWs)   bands (ev):

     5.4382   6.2099  11.7312  11.7312  11.7313  13.5024  13.5024  14.7361
    14.7361  14.7362  16.5710  16.5711  39.7154  39.7154  39.7154  40.2525

          k = 0.0000 0.0000 0.0000 (   141 PWs)   bands (ev):

     5.4382   6.2099  11.7312  11.7312  11.7313  13.5024  13.5024  14.7361
    14.7361  14.7362  16.5710  16.5711  39.7154  39.7154  39.7154  40.2525

          k = 0.1000 0.1000 0.1000 (   153 PWs)   bands (ev):

     6.0909   6.8690  11.5879  11.5880  12.1716  13.4320  13.4320  14.5433
    14.5433  15.2168  16.4861  16.4862  37.4580  37.4580  38.3295  38.3295

          k = 0.2000 0.2000 0.2000 (   150 PWs)   bands (ev):

     7.8190   8.6657  11.1532  11.1532  13.4255  13.4255  13.4647  13.9490
    13.9491  16.5036  16.5036  16.5702  33.3006  33.3006  34.4832  34.4832

          k = 0.3000 0.3000 0.3000 (   153 PWs)   bands (ev):

     9.8520  10.6937  10.6937  11.0281  13.3030  13.3030  13.5679  13.5679
    15.6666  16.6975  16.6975  18.6045  29.3737  29.3737  30.7750  30.7750

          k = 0.4000 0.4000 0.4000 (   149 PWs)   bands (ev):

    10.5408  10.5408  10.9578  12.8249  12.9947  12.9947  13.7144  13.7144
    16.8759  16.8760  19.1006  21.4174  26.0966  26.0966  27.6929  27.6968

          k = 0.5000 0.5000 0.5000 (   152 PWs)   bands (ev):

    10.7357  10.7357  10.7357  13.0634  13.0634  13.0634  13.7714  13.7714
    16.9402  16.9402  23.5806  23.5806  23.5806  25.3546  25.3546  25.3546

     Writing output data file fe.save
 
     init_run     :      0.19s CPU      0.22s WALL (       1 calls)
     electrons    :      1.95s CPU      2.00s WALL (       1 calls)

     Called by init_run:
     wfcinit      :      0.00s CPU      0.00s WALL (       1 calls)
     potinit      :      0.01s CPU      0.01s WALL (       1 calls)

     Called by electrons:
     c_bands      :      1.95s CPU      2.00s WALL (       1 calls)
     v_of_rho     :      0.00s CPU      0.00s WALL (       1 calls)
     newd         :      0.00s CPU      0.01s WALL (       1 calls)

     Called by c_bands:
     init_us_2    :      0.00s CPU      0.00s WALL (      28 calls)
     cegterg      :      1.86s CPU      1.90s WALL (      46 calls)

     Called by sum_band:

     Called by *egterg:
     h_psi        :      1.02s CPU      1.04s WALL (     748 calls)
     s_psi        :      0.03s CPU      0.03s WALL (     748 calls)
     g_psi        :      0.01s CPU      0.01s WALL (     674 calls)
     cdiaghg      :      0.67s CPU      0.67s WALL (     702 calls)

     Called by h_psi:
     add_vuspsi   :      0.03s CPU      0.03s WALL (     748 calls)

     General routines
     calbec       :      0.03s CPU      0.03s WALL (     748 calls)
     fft          :      0.00s CPU      0.00s WALL (      15 calls)
     ffts         :      0.00s CPU      0.00s WALL (       4 calls)
     fftw         :      0.73s CPU      0.76s WALL (   26916 calls)
     interpolate  :      0.00s CPU      0.00s WALL (       4 calls)
     davcio       :      0.00s CPU      0.00s WALL (      28 calls)
 
     Parallel routines
     fft_scatter  :      0.18s CPU      0.21s WALL (   26935 calls)
 
     PWSCF        :     2.41s CPU         2.50s WALL

 
   This run was terminated on:  17:51: 3  29Jun2016            

=------------------------------------------------------------------------------=
   JOB DONE.
=------------------------------------------------------------------------------=
