
     Program PWSCF v.5.4.0 (svn rev. 12828M) starts on 23Aug2016 at 14:32:50 

     This program is part of the open-source Quantum ESPRESSO suite
     for quantum simulation of materials; please cite
         "P. Giannozzi et al., J. Phys.:Condens. Matter 21 395502 (2009);
          URL http://www.quantum-espresso.org", 
     in publications or presentations arising from this work. More details at
     http://www.quantum-espresso.org/quote
 
           HOST :    x86_64-pc-linux-gnu
           ARCH :    x86_64
             CC :    icc
            CPP :    cpp
            F90 :    ifort
            F77 :    ifort
         DFLAGS :    -D__INTEL -D__FFTW -D__MPI -D__PARA -D__HDF5
      BLAS LIBS :    -lmkl_intel_lp64  -lmkl_sequential -lmkl_core
    LAPACK LIBS :    
       FFT LIBS :    
      MASS LIBS :    

     Parallel version (MPI), running on     2 processors
     R & G space division:  proc/nbgrp/npool/nimage =       2
     Waiting for input...
     Reading input from standard input
     Message from routine read_cards :
     DEPRECATED: no units specified in ATOMIC_POSITIONS card
     Message from routine read_cards :
     ATOMIC_POSITIONS: units set to alat

     Current dimensions of program PWSCF are:
     Max number of different atomic species (ntypx) = 10
     Max number of k-points (npk) =  40000
     Max angular momentum in pseudopotentials (lmaxx) =  3

     Atomic positions and unit cell read from directory:
     /home/nvarini/espresso_hdf5/espresso/tempdir/fe.save/
 
               file Fe.pz-nd-rrkjus.UPF: wavefunction(s)  4S renormalized

     Subspace diagonalization in iterative solution of the eigenvalue problem:
     a serial algorithm will be used

 
     Parallelization info
     --------------------
     sticks:   dense  smooth     PW     G-vecs:    dense   smooth      PW
     Min         153      77     33                 1683      602     184
     Max         154      78     34                 1684      603     185
     Sum         307     155     67                 3367     1205     369
 


     bravais-lattice index     =            3
     lattice parameter (alat)  =       5.2170  a.u.
     unit-cell volume          =      70.9958 (a.u.)^3
     number of atoms/cell      =            1
     number of atomic types    =            1
     number of electrons       =         8.00
     number of Kohn-Sham states=           16
     kinetic-energy cutoff     =      25.0000  Ry
     charge density cutoff     =     200.0000  Ry
     Exchange-correlation      =  SLA  PZ   NOGX NOGC ( 1  1  0  0 0 0)
     Noncollinear calculation without spin-orbit


     celldm(1)=   5.217000  celldm(2)=   0.000000  celldm(3)=   0.000000
     celldm(4)=   0.000000  celldm(5)=   0.000000  celldm(6)=   0.000000

     crystal axes: (cart. coord. in units of alat)
               a(1) = (   0.500000   0.500000   0.500000 )  
               a(2) = (  -0.500000   0.500000   0.500000 )  
               a(3) = (  -0.500000  -0.500000   0.500000 )  

     reciprocal axes: (cart. coord. in units 2 pi/alat)
               b(1) = (  1.000000  0.000000  1.000000 )  
               b(2) = ( -1.000000  1.000000  0.000000 )  
               b(3) = (  0.000000 -1.000000  1.000000 )  


     PseudoPot. # 1 for Fe read from file:
     /home/nvarini/espresso_hdf5/espresso/pseudo/Fe.pz-nd-rrkjus.UPF
     MD5 check sum: 2e083728ad07023434bc1cc596eb954d
     Pseudo is Ultrasoft + core correction, Zval =  8.0
     Generated by new atomic code, or converted to UPF format
     Using radial grid of  957 points,  6 beta functions with: 
                l(1) =   0
                l(2) =   0
                l(3) =   1
                l(4) =   1
                l(5) =   2
                l(6) =   2
     Q(r) pseudized with 0 coefficients 


     atomic species   valence    mass     pseudopotential
        Fe             8.00    55.84700     Fe( 1.00)

     16 Sym. Ops., with inversion, found



   Cartesian axes

     site n.     atom                  positions (alat units)
         1           Fe  tau(   1) = (   0.0000000   0.0000000   0.0000000  )

     number of k points=    28
                       cart. coord. in units 2pi/alat
        k(    1) = (   0.0000000   0.0000000   0.0000000), wk =   0.0357143
        k(    2) = (   0.0000000   0.0000000   0.1000000), wk =   0.0357143
        k(    3) = (   0.0000000   0.0000000   0.2000000), wk =   0.0357143
        k(    4) = (   0.0000000   0.0000000   0.3000000), wk =   0.0357143
        k(    5) = (   0.0000000   0.0000000   0.4000000), wk =   0.0357143
        k(    6) = (   0.0000000   0.0000000   0.5000000), wk =   0.0357143
        k(    7) = (   0.0000000   0.0000000   0.6000000), wk =   0.0357143
        k(    8) = (   0.0000000   0.0000000   0.7000000), wk =   0.0357143
        k(    9) = (   0.0000000   0.0000000   0.8000000), wk =   0.0357143
        k(   10) = (   0.0000000   0.0000000   0.9000000), wk =   0.0357143
        k(   11) = (   0.0000000   0.0000000   1.0000000), wk =   0.0357143
        k(   12) = (   0.0000000   0.0000000   0.0000000), wk =   0.0357143
        k(   13) = (   0.0000000   0.1000000   0.1000000), wk =   0.0357143
        k(   14) = (   0.0000000   0.2000000   0.2000000), wk =   0.0357143
        k(   15) = (   0.0000000   0.3000000   0.3000000), wk =   0.0357143
        k(   16) = (   0.0000000   0.4000000   0.4000000), wk =   0.0357143
        k(   17) = (   0.0000000   0.5000000   0.5000000), wk =   0.0357143
        k(   18) = (   0.0000000   0.6000000   0.6000000), wk =   0.0357143
        k(   19) = (   0.0000000   0.7000000   0.7000000), wk =   0.0357143
        k(   20) = (   0.0000000   0.8000000   0.8000000), wk =   0.0357143
        k(   21) = (   0.0000000   0.9000000   0.9000000), wk =   0.0357143
        k(   22) = (   0.0000000   1.0000000   1.0000000), wk =   0.0357143
        k(   23) = (   0.0000000   0.0000000   0.0000000), wk =   0.0357143
        k(   24) = (   0.1000000   0.1000000   0.1000000), wk =   0.0357143
        k(   25) = (   0.2000000   0.2000000   0.2000000), wk =   0.0357143
        k(   26) = (   0.3000000   0.3000000   0.3000000), wk =   0.0357143
        k(   27) = (   0.4000000   0.4000000   0.4000000), wk =   0.0357143
        k(   28) = (   0.5000000   0.5000000   0.5000000), wk =   0.0357143

     Dense  grid:     3367 G-vectors     FFT dimensions: (  24,  24,  24)

     Smooth grid:     1205 G-vectors     FFT dimensions: (  15,  15,  15)

     Estimated max dynamical RAM per process >       2.00Mb

     Estimated total allocated dynamical RAM >       4.00Mb
     Generating pointlists ...
     new r_m :   0.3572 (alat units)  1.8637 (a.u.) for type    1

     Check: negative/imaginary core charge=   -0.000013    0.000000

     The potential is recalculated from file :
     /home/nvarini/espresso_hdf5/espresso/tempdir/fe.save/charge-density.hdf5

     Starting wfc are   12 randomized atomic wfcs +    4 random wfc

     Band Structure Calculation
     Davidson diagonalization with overlap

     ethr =  1.25E-10,  avg # of iterations = 25.4

     total cpu time spent up to now is        2.4 secs

     End of band structure calculation

          k = 0.0000 0.0000 0.0000 (   141 PWs)   bands (ev):

     5.4382   6.2099  11.7313  11.7314  11.7314  13.5025  13.5025  14.7361
    14.7361  14.7361  16.5710  16.5710  39.7155  39.7155  39.7155  40.2525

          k = 0.0000 0.0000 0.1000 (   145 PWs)   bands (ev):

     5.6602   6.4331  11.7301  11.7301  11.7949  13.3924  13.5455  14.7245
    14.7245  14.8074  16.4312  16.6249  38.6083  39.2626  39.6021  39.6021

          k = 0.0000 0.0000 0.2000 (   148 PWs)   bands (ev):

     6.3036   7.0833  11.7408  11.7408  11.9805  13.0724  13.6680  14.7089
    14.7089  15.0156  16.0268  16.7722  36.7280  37.5581  38.8514  38.8514

          k = 0.0000 0.0000 0.3000 (   148 PWs)   bands (ev):

     7.2917   8.0975  11.8007  11.8008  12.2726  12.5743  13.8672  14.7381
    14.7382  15.3441  15.4032  16.9805  35.0348  36.0467  37.0956  37.0956

          k = 0.0000 0.0000 0.4000 (   152 PWs)   bands (ev):

     8.4527   9.3487  11.9504  11.9547  11.9547  12.6461  14.2042  14.6329
    14.8706  14.8706  15.7657  17.2412  33.6942  34.8195  34.8196  34.8893

          k = 0.0000 0.0000 0.5000 (   144 PWs)   bands (ev):

     9.4491  10.5969  11.2675  12.2382  12.2382  13.0673  13.8035  14.9150
    15.1547  15.1547  16.2432  17.6650  32.4507  32.4507  32.7002  33.8749

          k = 0.0000 0.0000 0.6000 (   152 PWs)   bands (ev):

     9.9021  10.5973  11.4731  12.6639  12.6640  13.0027  13.4960  15.6145
    15.6146  16.3273  16.7316  18.5594  30.1682  30.1682  31.5542  31.5542

          k = 0.0000 0.0000 0.7000 (   144 PWs)   bands (ev):

     9.8286  10.0054  11.7508  12.3059  13.2094  13.2094  13.8894  16.2377
    16.2377  17.1817  18.4379  20.1750  28.1104  28.1104  29.4065  29.4065

          k = 0.0000 0.0000 0.8000 (   144 PWs)   bands (ev):

     9.5311   9.5451  11.6227  11.7700  13.7986  13.7986  14.2059  16.9536
    16.9536  17.5454  20.9600  22.3495  26.4056  26.4056  27.5641  27.5641

          k = 0.0000 0.0000 0.9000 (   148 PWs)   bands (ev):

     9.2540   9.2598  11.4112  11.4337  14.2865  14.2865  14.4113  17.5913
    17.5913  17.7821  23.4739  24.5844  25.2367  25.2367  26.2379  26.2379

          k = 0.0000 0.0000 1.0000 (   164 PWs)   bands (ev):

     9.1545   9.1546  11.3192  11.3192  14.4822  14.4823  14.4823  17.8641
    17.8641  17.8641  24.8114  24.8114  24.8114  25.7333  25.7333  25.7333

          k = 0.0000 0.0000 0.0000 (   141 PWs)   bands (ev):

     5.4382   6.2099  11.7313  11.7314  11.7314  13.5025  13.5025  14.7361
    14.7361  14.7361  16.5710  16.5710  39.7155  39.7155  39.7155  40.2525

          k = 0.0000 0.1000 0.1000 (   146 PWs)   bands (ev):

     5.8774   6.6526  11.6057  11.7187  11.9804  13.3798  13.5133  14.5799
    14.6937  15.0112  16.4188  16.5844  37.6143  38.4547  39.1853  39.5874

          k = 0.0000 0.2000 0.2000 (   152 PWs)   bands (ev):

     7.0756   7.8897  11.2862  11.6486  12.6667  13.2221  13.5515  14.1868
    14.4462  15.7753  16.2586  16.6348  33.3778  34.6114  37.3445  38.0461

          k = 0.0000 0.3000 0.3000 (   156 PWs)   bands (ev):

     8.4475   9.5457  10.9091  11.9262  13.2785  13.5986  13.6206  13.7292
    14.1831  16.3723  16.7303  16.8301  28.7064  30.2416  35.2436  35.9136

          k = 0.0000 0.4000 0.4000 (   152 PWs)   bands (ev):

     8.9394  10.6171  10.6917  13.2988  13.3790  13.6559  13.6954  14.4419
    14.7945  16.5521  16.8370  17.8075  24.5234  26.4017  33.7640  34.3764

          k = 0.0000 0.5000 0.5000 (   150 PWs)   bands (ev):

     8.9470  10.5084  10.9320  13.2495  13.4556  13.7287  14.7913  14.9239
    15.6592  16.5748  16.8855  18.2209  22.4226  24.6180  33.2384  33.8247

          k = 0.0000 0.6000 0.6000 (   152 PWs)   bands (ev):

     8.9394  10.6171  10.6917  13.2988  13.3790  13.6559  13.6954  14.4419
    14.7945  16.5521  16.8370  17.8075  24.5234  26.4017  33.7640  34.3764

          k = 0.0000 0.7000 0.7000 (   156 PWs)   bands (ev):

     8.4475   9.5457  10.9091  11.9262  13.2785  13.5986  13.6206  13.7292
    14.1831  16.3723  16.7303  16.8301  28.7064  30.2416  35.2436  35.9136

          k = 0.0000 0.8000 0.8000 (   152 PWs)   bands (ev):

     7.0756   7.8897  11.2862  11.6486  12.6667  13.2221  13.5515  14.1868
    14.4462  15.7753  16.2586  16.6348  33.3778  34.6114  37.3445  38.0461

          k = 0.0000 0.9000 0.9000 (   146 PWs)   bands (ev):

     5.8774   6.6526  11.6057  11.7187  11.9804  13.3798  13.5133  14.5799
    14.6937  15.0112  16.4188  16.5844  37.6143  38.4547  39.1853  39.5874

          k = 0.0000 1.0000 1.0000 (   141 PWs)   bands (ev):

     5.4382   6.2099  11.7313  11.7314  11.7314  13.5025  13.5025  14.7361
    14.7361  14.7361  16.5710  16.5710  39.7155  39.7155  39.7155  40.2525

          k = 0.0000 0.0000 0.0000 (   141 PWs)   bands (ev):

     5.4382   6.2099  11.7313  11.7314  11.7314  13.5025  13.5025  14.7361
    14.7361  14.7361  16.5710  16.5710  39.7155  39.7155  39.7155  40.2525

          k = 0.1000 0.1000 0.1000 (   153 PWs)   bands (ev):

     6.0909   6.8690  11.5880  11.5881  12.1717  13.4321  13.4321  14.5433
    14.5433  15.2168  16.4861  16.4862  37.4580  37.4580  38.3294  38.3295

          k = 0.2000 0.2000 0.2000 (   150 PWs)   bands (ev):

     7.8190   8.6657  11.1533  11.1533  13.4255  13.4256  13.4648  13.9490
    13.9490  16.5036  16.5036  16.5701  33.3007  33.3007  34.4832  34.4832

          k = 0.3000 0.3000 0.3000 (   153 PWs)   bands (ev):

     9.8520  10.6938  10.6938  11.0281  13.3030  13.3030  13.5680  13.5680
    15.6667  16.6974  16.6975  18.6045  29.3737  29.3738  30.7750  30.7750

          k = 0.4000 0.4000 0.4000 (   149 PWs)   bands (ev):

    10.5408  10.5409  10.9578  12.8248  12.9947  12.9947  13.7145  13.7145
    16.8759  16.8760  19.1006  21.4174  26.0966  26.0966  27.6929  27.6967

          k = 0.5000 0.5000 0.5000 (   152 PWs)   bands (ev):

    10.7357  10.7358  10.7358  13.0634  13.0634  13.0634  13.7715  13.7715
    16.9402  16.9402  23.5806  23.5806  23.5806  25.3546  25.3546  25.3546

     Writing output data file fe.save
 
     init_run     :      0.21s CPU      0.21s WALL (       1 calls)
     electrons    :      2.01s CPU      2.04s WALL (       1 calls)

     Called by init_run:
     wfcinit      :      0.00s CPU      0.00s WALL (       1 calls)
     potinit      :      0.01s CPU      0.01s WALL (       1 calls)

     Called by electrons:
     c_bands      :      2.01s CPU      2.04s WALL (       1 calls)
     v_of_rho     :      0.00s CPU      0.00s WALL (       1 calls)
     newd         :      0.01s CPU      0.01s WALL (       1 calls)

     Called by c_bands:
     init_us_2    :      0.00s CPU      0.00s WALL (      28 calls)
     cegterg      :      1.90s CPU      1.93s WALL (      49 calls)

     Called by sum_band:

     Called by *egterg:
     h_psi        :      1.04s CPU      1.06s WALL (     789 calls)
     s_psi        :      0.03s CPU      0.03s WALL (     789 calls)
     g_psi        :      0.01s CPU      0.01s WALL (     712 calls)
     cdiaghg      :      0.69s CPU      0.69s WALL (     740 calls)

     Called by h_psi:
     h_psi:pot    :      1.04s CPU      1.06s WALL (     789 calls)
     h_psi:calbec :      0.03s CPU      0.03s WALL (     789 calls)
     add_vuspsi   :      0.03s CPU      0.03s WALL (     789 calls)

     General routines
     calbec       :      0.03s CPU      0.03s WALL (     789 calls)
     fft          :      0.00s CPU      0.00s WALL (      15 calls)
     ffts         :      0.00s CPU      0.00s WALL (       4 calls)
     fftw         :      0.75s CPU      0.77s WALL (   27324 calls)
     interpolate  :      0.00s CPU      0.00s WALL (       4 calls)
     davcio       :      0.00s CPU      0.00s WALL (      28 calls)
 
     Parallel routines
     fft_scatter  :      0.18s CPU      0.22s WALL (   27343 calls)
 
     PWSCF        :     2.50s CPU         2.59s WALL

 
   This run was terminated on:  14:32:53  23Aug2016            

=------------------------------------------------------------------------------=
   JOB DONE.
=------------------------------------------------------------------------------=
