
     Program PWSCF v.5.4.0 (svn rev. 12828M) starts on 23Aug2016 at 14:32:53 

     This program is part of the open-source Quantum ESPRESSO suite
     for quantum simulation of materials; please cite
         "P. Giannozzi et al., J. Phys.:Condens. Matter 21 395502 (2009);
          URL http://www.quantum-espresso.org", 
     in publications or presentations arising from this work. More details at
     http://www.quantum-espresso.org/quote
 
           HOST :    x86_64-pc-linux-gnu
           ARCH :    x86_64
             CC :    icc
            CPP :    cpp
            F90 :    ifort
            F77 :    ifort
         DFLAGS :    -D__INTEL -D__FFTW -D__MPI -D__PARA -D__HDF5
      BLAS LIBS :    -lmkl_intel_lp64  -lmkl_sequential -lmkl_core
    LAPACK LIBS :    
       FFT LIBS :    
      MASS LIBS :    

     Parallel version (MPI), running on     2 processors
     R & G space division:  proc/nbgrp/npool/nimage =       2
     Waiting for input...
     Reading input from standard input
     Message from routine read_cards :
     DEPRECATED: no units specified in ATOMIC_POSITIONS card
     Message from routine read_cards :
     ATOMIC_POSITIONS: units set to alat

     Current dimensions of program PWSCF are:
     Max number of different atomic species (ntypx) = 10
     Max number of k-points (npk) =  40000
     Max angular momentum in pseudopotentials (lmaxx) =  3
               file Fe.pz-nd-rrkjus.UPF: wavefunction(s)  4S renormalized

     Subspace diagonalization in iterative solution of the eigenvalue problem:
     a serial algorithm will be used

 
     Parallelization info
     --------------------
     sticks:   dense  smooth     PW     G-vecs:    dense   smooth      PW
     Min         153      77     27                 1683      602     124
     Max         154      78     28                 1684      603     125
     Sum         307     155     55                 3367     1205     249
 


     bravais-lattice index     =            3
     lattice parameter (alat)  =       5.2170  a.u.
     unit-cell volume          =      70.9958 (a.u.)^3
     number of atoms/cell      =            1
     number of atomic types    =            1
     number of electrons       =         8.00
     number of Kohn-Sham states=           16
     kinetic-energy cutoff     =      25.0000  Ry
     charge density cutoff     =     200.0000  Ry
     convergence threshold     =      1.0E-08
     mixing beta               =       0.2000
     number of iterations used =            8  plain     mixing
     Exchange-correlation      =  SLA  PZ   NOGX NOGC ( 1  1  0  0 0 0)
     Noncollinear calculation without spin-orbit


     celldm(1)=   5.217000  celldm(2)=   0.000000  celldm(3)=   0.000000
     celldm(4)=   0.000000  celldm(5)=   0.000000  celldm(6)=   0.000000

     crystal axes: (cart. coord. in units of alat)
               a(1) = (   0.500000   0.500000   0.500000 )  
               a(2) = (  -0.500000   0.500000   0.500000 )  
               a(3) = (  -0.500000  -0.500000   0.500000 )  

     reciprocal axes: (cart. coord. in units 2 pi/alat)
               b(1) = (  1.000000  0.000000  1.000000 )  
               b(2) = ( -1.000000  1.000000  0.000000 )  
               b(3) = (  0.000000 -1.000000  1.000000 )  


     PseudoPot. # 1 for Fe read from file:
     /home/nvarini/espresso_hdf5/espresso/pseudo/Fe.pz-nd-rrkjus.UPF
     MD5 check sum: 2e083728ad07023434bc1cc596eb954d
     Pseudo is Ultrasoft + core correction, Zval =  8.0
     Generated by new atomic code, or converted to UPF format
     Using radial grid of  957 points,  6 beta functions with: 
                l(1) =   0
                l(2) =   0
                l(3) =   1
                l(4) =   1
                l(5) =   2
                l(6) =   2
     Q(r) pseudized with 0 coefficients 


     atomic species   valence    mass     pseudopotential
        Fe             8.00    55.84700     Fe( 1.00)

      4 Sym. Ops., with inversion, found



   Cartesian axes

     site n.     atom                  positions (alat units)
         1           Fe  tau(   1) = (   0.0000000   0.0000000   0.0000000  )

     number of k points=    70  Marzari-Vanderbilt smearing, width (Ry)=  0.0500
                       cart. coord. in units 2pi/alat
        k(    1) = (   0.0625000   0.0625000   0.0625000), wk =   0.0135135
        k(    2) = (   0.0625000   0.0625000   0.1875000), wk =   0.0135135
        k(    3) = (   0.0625000   0.0625000   0.3125000), wk =   0.0135135
        k(    4) = (   0.0625000   0.0625000   0.4375000), wk =   0.0135135
        k(    5) = (   0.0625000   0.0625000   0.5625000), wk =   0.0135135
        k(    6) = (   0.0625000   0.0625000   0.6875000), wk =   0.0135135
        k(    7) = (   0.0625000   0.0625000   0.8125000), wk =   0.0135135
        k(    8) = (   0.0625000   0.0625000   0.9375000), wk =   0.0405405
        k(    9) = (   0.0625000   0.1875000   0.1875000), wk =   0.0135135
        k(   10) = (   0.0625000   0.1875000   0.3125000), wk =   0.0135135
        k(   11) = (   0.0625000   0.1875000   0.4375000), wk =   0.0135135
        k(   12) = (   0.0625000   0.0625000  -0.0625000), wk =   0.0135135
        k(   13) = (   0.0625000   0.0625000  -0.1875000), wk =   0.0135135
        k(   14) = (   0.1875000  -0.0625000   0.0625000), wk =   0.0135135
        k(   15) = (   0.1875000   0.0625000  -0.0625000), wk =   0.0135135
        k(   16) = (  -0.0625000   0.1875000   0.0625000), wk =   0.0135135
        k(   17) = (  -0.0625000  -0.1875000  -0.0625000), wk =   0.0135135
        k(   18) = (   0.0625000   0.0625000  -0.3125000), wk =   0.0135135
        k(   19) = (   0.3125000  -0.0625000   0.0625000), wk =   0.0135135
        k(   20) = (   0.3125000   0.0625000  -0.0625000), wk =   0.0135135
        k(   21) = (  -0.0625000   0.3125000   0.0625000), wk =   0.0135135
        k(   22) = (  -0.0625000  -0.3125000  -0.0625000), wk =   0.0135135
        k(   23) = (   0.0625000   0.0625000  -0.4375000), wk =   0.0135135
        k(   24) = (   0.4375000  -0.0625000   0.0625000), wk =   0.0135135
        k(   25) = (   0.4375000   0.0625000  -0.0625000), wk =   0.0135135
        k(   26) = (  -0.0625000   0.4375000   0.0625000), wk =   0.0135135
        k(   27) = (  -0.0625000  -0.4375000  -0.0625000), wk =   0.0135135
        k(   28) = (   0.0625000   0.0625000  -0.5625000), wk =   0.0135135
        k(   29) = (   0.5625000  -0.0625000   0.0625000), wk =   0.0135135
        k(   30) = (   0.5625000   0.0625000  -0.0625000), wk =   0.0135135
        k(   31) = (  -0.0625000   0.5625000   0.0625000), wk =   0.0135135
        k(   32) = (  -0.0625000  -0.5625000  -0.0625000), wk =   0.0135135
        k(   33) = (   0.0625000   0.0625000  -0.6875000), wk =   0.0135135
        k(   34) = (   0.6875000  -0.0625000   0.0625000), wk =   0.0135135
        k(   35) = (   0.6875000   0.0625000  -0.0625000), wk =   0.0135135
        k(   36) = (  -0.0625000   0.6875000   0.0625000), wk =   0.0135135
        k(   37) = (  -0.0625000  -0.6875000  -0.0625000), wk =   0.0135135
        k(   38) = (   0.0625000   0.0625000  -0.8125000), wk =   0.0135135
        k(   39) = (   0.8125000  -0.0625000   0.0625000), wk =   0.0135135
        k(   40) = (   0.8125000   0.0625000  -0.0625000), wk =   0.0135135
        k(   41) = (  -0.0625000   0.8125000   0.0625000), wk =   0.0135135
        k(   42) = (  -0.0625000  -0.8125000  -0.0625000), wk =   0.0135135
        k(   43) = (   0.0625000   0.0625000  -0.9375000), wk =   0.0405405
        k(   44) = (   0.1875000   0.0625000  -0.1875000), wk =   0.0135135
        k(   45) = (  -0.1875000  -0.0625000  -0.1875000), wk =   0.0135135
        k(   46) = (   0.1875000  -0.1875000   0.0625000), wk =   0.0135135
        k(   47) = (   0.1875000   0.1875000  -0.0625000), wk =   0.0135135
        k(   48) = (  -0.0625000   0.1875000   0.1875000), wk =   0.0135135
        k(   49) = (   0.1875000   0.0625000  -0.3125000), wk =   0.0135135
        k(   50) = (  -0.1875000  -0.0625000  -0.3125000), wk =   0.0135135
        k(   51) = (   0.3125000  -0.1875000   0.0625000), wk =   0.0135135
        k(   52) = (   0.3125000   0.1875000  -0.0625000), wk =   0.0135135
        k(   53) = (  -0.0625000   0.3125000   0.1875000), wk =   0.0135135
        k(   54) = (  -0.0625000  -0.3125000  -0.1875000), wk =   0.0135135
        k(   55) = (   0.1875000   0.3125000   0.0625000), wk =   0.0135135
        k(   56) = (   0.1875000  -0.3125000  -0.0625000), wk =   0.0135135
        k(   57) = (   0.3125000   0.0625000   0.1875000), wk =   0.0135135
        k(   58) = (   0.3125000  -0.0625000  -0.1875000), wk =   0.0135135
        k(   59) = (  -0.0625000  -0.1875000   0.3125000), wk =   0.0135135
        k(   60) = (   0.1875000   0.0625000  -0.4375000), wk =   0.0135135
        k(   61) = (  -0.1875000  -0.0625000  -0.4375000), wk =   0.0135135
        k(   62) = (   0.4375000  -0.1875000   0.0625000), wk =   0.0135135
        k(   63) = (   0.4375000   0.1875000  -0.0625000), wk =   0.0135135
        k(   64) = (  -0.0625000   0.4375000   0.1875000), wk =   0.0135135
        k(   65) = (  -0.0625000  -0.4375000  -0.1875000), wk =   0.0135135
        k(   66) = (   0.1875000   0.4375000   0.0625000), wk =   0.0135135
        k(   67) = (   0.1875000  -0.4375000  -0.0625000), wk =   0.0135135
        k(   68) = (   0.4375000   0.0625000   0.1875000), wk =   0.0135135
        k(   69) = (   0.4375000  -0.0625000  -0.1875000), wk =   0.0135135
        k(   70) = (  -0.0625000  -0.1875000   0.4375000), wk =   0.0135135

     Dense  grid:     3367 G-vectors     FFT dimensions: (  24,  24,  24)

     Smooth grid:     1205 G-vectors     FFT dimensions: (  15,  15,  15)

     Estimated max dynamical RAM per process >       6.52Mb

     Estimated total allocated dynamical RAM >      13.04Mb
     Generating pointlists ...
     new r_m :   0.3572 (alat units)  1.8637 (a.u.) for type    1

     Check: negative/imaginary core charge=   -0.000013    0.000000

     Initial potential from superposition of free atoms

     starting charge    7.99953, renormalised to    8.00000
     constraint energy (Ryd) =      8.02202247

 ==============================================================================
     atom number    1 relative position :    0.0000   0.0000   0.0000
     charge :     6.664635
     magnetization :          3.319637    0.000000    0.290431
     magnetization/charge:    0.498097    0.000000    0.043578
     polar coord.: r, theta, phi [deg] :     3.332318   85.000000    0.000000
     constrained moment :     0.498097    0.000000    0.043578

 ==============================================================================
     Starting wfc are   12 randomized atomic wfcs +    4 random wfc

     total cpu time spent up to now is        0.5 secs

     per-process dynamical memory:     8.3 Mb

     Self-consistent Calculation

     iteration #  1     ecut=    25.00 Ry     beta=0.20
     Davidson diagonalization with overlap
     ethr =  1.00E-02,  avg # of iterations =  4.3
     constraint energy (Ryd) =      6.78549587

 ==============================================================================
     atom number    1 relative position :    0.0000   0.0000   0.0000
     charge :     6.568759
     magnetization :          3.093085    0.000000    0.270593
     magnetization/charge:    0.470878    0.000000    0.041194
     polar coord.: r, theta, phi [deg] :     3.104898   85.000303    0.000000
     constrained moment :     0.498097    0.000000    0.043578

 ==============================================================================

     total cpu time spent up to now is        1.5 secs

     total energy              =     -55.70590601 Ry
     Harris-Foulkes estimate   =     -55.76529779 Ry
     estimated scf accuracy    <       0.24771586 Ry

     total magnetization       =     2.35     0.00     0.21 Bohr mag/cell
     absolute magnetization    =     2.36 Bohr mag/cell
     lambda                    =       1.00 Ry

     iteration #  2     ecut=    25.00 Ry     beta=0.20
     Davidson diagonalization with overlap
     ethr =  3.10E-03,  avg # of iterations =  1.0
     constraint energy (Ryd) =      4.85679092

 ==============================================================================
     atom number    1 relative position :    0.0000   0.0000   0.0000
     charge :     6.433705
     magnetization :          2.693528   -0.000000    0.235611
     magnetization/charge:    0.418659   -0.000000    0.036621
     polar coord.: r, theta, phi [deg] :     2.703813   85.000893    0.000000
     constrained moment :     0.498097    0.000000    0.043578

 ==============================================================================

     total cpu time spent up to now is        2.1 secs

     total energy              =     -55.68124156 Ry
     Harris-Foulkes estimate   =     -55.71644150 Ry
     estimated scf accuracy    <       0.08260623 Ry

     total magnetization       =     2.36     0.00     0.21 Bohr mag/cell
     absolute magnetization    =     2.37 Bohr mag/cell
     lambda                    =       1.00 Ry

     iteration #  3     ecut=    25.00 Ry     beta=0.20
     Davidson diagonalization with overlap
     ethr =  1.03E-03,  avg # of iterations =  2.1
     constraint energy (Ryd) =      3.68358727

 ==============================================================================
     atom number    1 relative position :    0.0000   0.0000   0.0000
     charge :     6.423218
     magnetization :          2.410065   -0.000000    0.210816
     magnetization/charge:    0.375211   -0.000000    0.032821
     polar coord.: r, theta, phi [deg] :     2.419267   85.000869    0.000000
     constrained moment :     0.498097    0.000000    0.043578

 ==============================================================================

     total cpu time spent up to now is        2.8 secs

     total energy              =     -55.69773738 Ry
     Harris-Foulkes estimate   =     -55.69838754 Ry
     estimated scf accuracy    <       0.00390860 Ry

     total magnetization       =     2.32    -0.00     0.20 Bohr mag/cell
     absolute magnetization    =     2.33 Bohr mag/cell
     lambda                    =       1.00 Ry

     iteration #  4     ecut=    25.00 Ry     beta=0.20
     Davidson diagonalization with overlap
     ethr =  4.89E-05,  avg # of iterations =  3.3
     constraint energy (Ryd) =      2.12210184

 ==============================================================================
     atom number    1 relative position :    0.0000   0.0000   0.0000
     charge :     6.374540
     magnetization :          1.949301    0.000000    0.170507
     magnetization/charge:    0.305795    0.000000    0.026748
     polar coord.: r, theta, phi [deg] :     1.956744   85.001016    0.000000
     constrained moment :     0.498097    0.000000    0.043578

 ==============================================================================

     total cpu time spent up to now is        3.7 secs

     total energy              =     -55.69209234 Ry
     Harris-Foulkes estimate   =     -55.69901610 Ry
     estimated scf accuracy    <       0.00267361 Ry

     total magnetization       =     2.14     0.00     0.19 Bohr mag/cell
     absolute magnetization    =     2.15 Bohr mag/cell
     lambda                    =       1.00 Ry

     iteration #  5     ecut=    25.00 Ry     beta=0.20
     Davidson diagonalization with overlap
     ethr =  3.34E-05,  avg # of iterations =  2.2
     constraint energy (Ryd) =      1.60751853

 ==============================================================================
     atom number    1 relative position :    0.0000   0.0000   0.0000
     charge :     6.404624
     magnetization :          1.761155    0.000000    0.154053
     magnetization/charge:    0.274982    0.000000    0.024053
     polar coord.: r, theta, phi [deg] :     1.767880   85.000909    0.000000
     constrained moment :     0.498097    0.000000    0.043578

 ==============================================================================

     total cpu time spent up to now is        4.4 secs

     total energy              =     -55.69106145 Ry
     Harris-Foulkes estimate   =     -55.69395735 Ry
     estimated scf accuracy    <       0.00162678 Ry

     total magnetization       =     1.93    -0.00     0.17 Bohr mag/cell
     absolute magnetization    =     1.94 Bohr mag/cell
     lambda                    =       1.00 Ry

     iteration #  6     ecut=    25.00 Ry     beta=0.20
     Davidson diagonalization with overlap
     ethr =  2.03E-05,  avg # of iterations =  2.0
     constraint energy (Ryd) =      1.33708990

 ==============================================================================
     atom number    1 relative position :    0.0000   0.0000   0.0000
     charge :     6.405646
     magnetization :          1.650026    0.000000    0.144332
     magnetization/charge:    0.257589    0.000000    0.022532
     polar coord.: r, theta, phi [deg] :     1.656326   85.000912    0.000000
     constrained moment :     0.498097    0.000000    0.043578

 ==============================================================================

     total cpu time spent up to now is        5.1 secs

     total energy              =     -55.69054087 Ry
     Harris-Foulkes estimate   =     -55.69191504 Ry
     estimated scf accuracy    <       0.00022377 Ry

     total magnetization       =     1.77    -0.00     0.15 Bohr mag/cell
     absolute magnetization    =     1.78 Bohr mag/cell
     lambda                    =       1.00 Ry

     iteration #  7     ecut=    25.00 Ry     beta=0.20
     Davidson diagonalization with overlap
     ethr =  2.80E-06,  avg # of iterations =  3.0
     constraint energy (Ryd) =      1.32428135

 ==============================================================================
     atom number    1 relative position :    0.0000   0.0000   0.0000
     charge :     6.405583
     magnetization :          1.644495    0.000000    0.143848
     magnetization/charge:    0.256728    0.000000    0.022457
     polar coord.: r, theta, phi [deg] :     1.650774   85.000910    0.000000
     constrained moment :     0.498097    0.000000    0.043578

 ==============================================================================

     total cpu time spent up to now is        5.9 secs

     total energy              =     -55.69070267 Ry
     Harris-Foulkes estimate   =     -55.69075903 Ry
     estimated scf accuracy    <       0.00007589 Ry

     total magnetization       =     1.69     0.00     0.15 Bohr mag/cell
     absolute magnetization    =     1.70 Bohr mag/cell
     lambda                    =       1.00 Ry

     iteration #  8     ecut=    25.00 Ry     beta=0.20
     Davidson diagonalization with overlap
     ethr =  9.49E-07,  avg # of iterations =  1.0
     constraint energy (Ryd) =      1.61875158

 ==============================================================================
     atom number    1 relative position :    0.0000   0.0000   0.0000
     charge :     6.403843
     magnetization :          1.765560   -0.000000    0.154440
     magnetization/charge:    0.275703   -0.000000    0.024117
     polar coord.: r, theta, phi [deg] :     1.772302   85.000861    0.000000
     constrained moment :     0.498097    0.000000    0.043578

 ==============================================================================

     total cpu time spent up to now is        6.5 secs

     total energy              =     -55.69196275 Ry
     Harris-Foulkes estimate   =     -55.69070396 Ry
     estimated scf accuracy    <       0.00007013 Ry

     total magnetization       =     1.69     0.00     0.15 Bohr mag/cell
     absolute magnetization    =     1.70 Bohr mag/cell
     lambda                    =       1.00 Ry

     iteration #  9     ecut=    25.00 Ry     beta=0.20
     Davidson diagonalization with overlap
     ethr =  8.77E-07,  avg # of iterations =  2.0
     constraint energy (Ryd) =      1.07066583

 ==============================================================================
     atom number    1 relative position :    0.0000   0.0000   0.0000
     charge :     6.404685
     magnetization :          1.528891   -0.000000    0.133751
     magnetization/charge:    0.238714   -0.000000    0.020883
     polar coord.: r, theta, phi [deg] :     1.534730   85.000342    0.000000
     constrained moment :     0.498097    0.000000    0.043578

 ==============================================================================

     total cpu time spent up to now is        7.2 secs

     total energy              =     -55.68868666 Ry
     Harris-Foulkes estimate   =     -55.69212091 Ry
     estimated scf accuracy    <       0.00016669 Ry

     total magnetization       =     1.77    -0.00     0.16 Bohr mag/cell
     absolute magnetization    =     1.78 Bohr mag/cell
     lambda                    =       1.00 Ry

     iteration # 10     ecut=    25.00 Ry     beta=0.20
     Davidson diagonalization with overlap
     ethr =  8.77E-07,  avg # of iterations =  2.4
     constraint energy (Ryd) =      1.26652689

 ==============================================================================
     atom number    1 relative position :    0.0000   0.0000   0.0000
     charge :     6.403749
     magnetization :          1.619216   -0.000000    0.141655
     magnetization/charge:    0.252854   -0.000000    0.022121
     polar coord.: r, theta, phi [deg] :     1.625401   85.000281    0.000000
     constrained moment :     0.498097    0.000000    0.043578

 ==============================================================================

     total cpu time spent up to now is        8.0 secs

     total energy              =     -55.69032881 Ry
     Harris-Foulkes estimate   =     -55.68937128 Ry
     estimated scf accuracy    <       0.00003938 Ry

     total magnetization       =     1.60    -0.00     0.14 Bohr mag/cell
     absolute magnetization    =     1.60 Bohr mag/cell
     lambda                    =       1.00 Ry

     iteration # 11     ecut=    25.00 Ry     beta=0.20
     Davidson diagonalization with overlap
     ethr =  4.92E-07,  avg # of iterations =  2.0
     constraint energy (Ryd) =      1.21409026

 ==============================================================================
     atom number    1 relative position :    0.0000   0.0000   0.0000
     charge :     6.403751
     magnetization :          1.595763   -0.000000    0.139604
     magnetization/charge:    0.249192   -0.000000    0.021800
     polar coord.: r, theta, phi [deg] :     1.601858   85.000259    0.000000
     constrained moment :     0.498097    0.000000    0.043578

 ==============================================================================

     total cpu time spent up to now is        8.7 secs

     total energy              =     -55.69014652 Ry
     Harris-Foulkes estimate   =     -55.69042334 Ry
     estimated scf accuracy    <       0.00000676 Ry

     total magnetization       =     1.66     0.00     0.15 Bohr mag/cell
     absolute magnetization    =     1.67 Bohr mag/cell
     lambda                    =       1.00 Ry

     iteration # 12     ecut=    25.00 Ry     beta=0.20
     Davidson diagonalization with overlap
     ethr =  8.45E-08,  avg # of iterations =  2.0
     constraint energy (Ryd) =      1.23806086

 ==============================================================================
     atom number    1 relative position :    0.0000   0.0000   0.0000
     charge :     6.402830
     magnetization :          1.606545   -0.000000    0.140553
     magnetization/charge:    0.250912   -0.000000    0.021952
     polar coord.: r, theta, phi [deg] :     1.612682   85.000070    0.000000
     constrained moment :     0.498097    0.000000    0.043578

 ==============================================================================

     total cpu time spent up to now is        9.4 secs

     total energy              =     -55.69027706 Ry
     Harris-Foulkes estimate   =     -55.69015331 Ry
     estimated scf accuracy    <       0.00001216 Ry

     total magnetization       =     1.65     0.00     0.14 Bohr mag/cell
     absolute magnetization    =     1.65 Bohr mag/cell
     lambda                    =       1.00 Ry

     iteration # 13     ecut=    25.00 Ry     beta=0.20
     Davidson diagonalization with overlap
     ethr =  8.45E-08,  avg # of iterations =  2.0
     constraint energy (Ryd) =      1.25375788

 ==============================================================================
     atom number    1 relative position :    0.0000   0.0000   0.0000
     charge :     6.402931
     magnetization :          1.613550   -0.000000    0.141165
     magnetization/charge:    0.252002   -0.000000    0.022047
     polar coord.: r, theta, phi [deg] :     1.619713   85.000087    0.000000
     constrained moment :     0.498097    0.000000    0.043578

 ==============================================================================

     total cpu time spent up to now is       10.1 secs

     total energy              =     -55.69036102 Ry
     Harris-Foulkes estimate   =     -55.69028020 Ry
     estimated scf accuracy    <       0.00000092 Ry

     total magnetization       =     1.66     0.00     0.14 Bohr mag/cell
     absolute magnetization    =     1.66 Bohr mag/cell
     lambda                    =       1.00 Ry

     iteration # 14     ecut=    25.00 Ry     beta=0.20
     Davidson diagonalization with overlap
     ethr =  1.15E-08,  avg # of iterations =  1.9
     constraint energy (Ryd) =      1.25422384

 ==============================================================================
     atom number    1 relative position :    0.0000   0.0000   0.0000
     charge :     6.402885
     magnetization :          1.613757   -0.000000    0.141183
     magnetization/charge:    0.252036   -0.000000    0.022050
     polar coord.: r, theta, phi [deg] :     1.619921   85.000076    0.000000
     constrained moment :     0.498097    0.000000    0.043578

 ==============================================================================

     total cpu time spent up to now is       10.7 secs

     total energy              =     -55.69036437 Ry
     Harris-Foulkes estimate   =     -55.69036155 Ry
     estimated scf accuracy    <       0.00000041 Ry

     total magnetization       =     1.66     0.00     0.15 Bohr mag/cell
     absolute magnetization    =     1.67 Bohr mag/cell
     lambda                    =       1.00 Ry

     iteration # 15     ecut=    25.00 Ry     beta=0.20
     Davidson diagonalization with overlap
     ethr =  5.15E-09,  avg # of iterations =  1.2
     constraint energy (Ryd) =      1.24584065

 ==============================================================================
     atom number    1 relative position :    0.0000   0.0000   0.0000
     charge :     6.403142
     magnetization :          1.610022    0.000000    0.140861
     magnetization/charge:    0.251443    0.000000    0.021999
     polar coord.: r, theta, phi [deg] :     1.616172   84.999901    0.000000
     constrained moment :     0.498097    0.000000    0.043578

 ==============================================================================

     total cpu time spent up to now is       11.3 secs

     total energy              =     -55.69032148 Ry
     Harris-Foulkes estimate   =     -55.69036439 Ry
     estimated scf accuracy    <       0.00000028 Ry

     total magnetization       =     1.66     0.00     0.15 Bohr mag/cell
     absolute magnetization    =     1.67 Bohr mag/cell
     lambda                    =       1.00 Ry

     iteration # 16     ecut=    25.00 Ry     beta=0.20
     Davidson diagonalization with overlap
     ethr =  3.46E-09,  avg # of iterations =  2.5
     constraint energy (Ryd) =      1.23930510

 ==============================================================================
     atom number    1 relative position :    0.0000   0.0000   0.0000
     charge :     6.402997
     magnetization :          1.607102    0.000000    0.140606
     magnetization/charge:    0.250992    0.000000    0.021959
     polar coord.: r, theta, phi [deg] :     1.613241   84.999901    0.000000
     constrained moment :     0.498097    0.000000    0.043578

 ==============================================================================

     total cpu time spent up to now is       12.2 secs

     total energy              =     -55.69028812 Ry
     Harris-Foulkes estimate   =     -55.69032176 Ry
     estimated scf accuracy    <       0.00000047 Ry

     total magnetization       =     1.66    -0.00     0.15 Bohr mag/cell
     absolute magnetization    =     1.67 Bohr mag/cell
     lambda                    =       1.00 Ry

     iteration # 17     ecut=    25.00 Ry     beta=0.20
     Davidson diagonalization with overlap
     ethr =  3.46E-09,  avg # of iterations =  2.1
     constraint energy (Ryd) =      1.23948677

 ==============================================================================
     atom number    1 relative position :    0.0000   0.0000   0.0000
     charge :     6.402900
     magnetization :          1.607183   -0.000000    0.140613
     magnetization/charge:    0.251009   -0.000000    0.021961
     polar coord.: r, theta, phi [deg] :     1.613322   84.999919    0.000000
     constrained moment :     0.498097    0.000000    0.043578

 ==============================================================================

     total cpu time spent up to now is       12.9 secs

     End of self-consistent calculation

          k = 0.0625 0.0625 0.0625 (   141 PWs)   bands (ev):

     5.9510   6.1971  12.2417  12.2417  12.4718  13.4419  13.4419  13.6873
    13.8581  13.8581  15.3271  15.3271  38.9719  38.9719  39.2158  39.2158

          k = 0.0625 0.0625 0.1875 (   148 PWs)   bands (ev):

     6.6175   6.8682  12.1408  12.2149  12.7720  13.3255  13.4022  13.5632
    13.9999  14.0013  14.9918  15.4837  36.4899  36.8591  38.1008  38.4418

          k = 0.0625 0.0625 0.3125 (   152 PWs)   bands (ev):

     7.8218   8.0977  12.1704  12.1754  13.0709  13.1928  13.3360  13.3494
    14.2602  14.4238  14.4431  15.7460  34.1131  34.5976  35.7763  36.2006

          k = 0.0625 0.0625 0.4375 (   156 PWs)   bands (ev):

     9.2172   9.5967  11.8751  12.3830  12.8126  13.0633  13.5379  13.6904
    14.0545  14.7947  14.9744  16.1779  32.0178  32.5959  33.0370  33.5000

          k = 0.0625 0.0625 0.5625 (   148 PWs)   bands (ev):

    10.1577  10.7922  11.1715  12.3179  12.7388  13.1214  13.9140  14.1908
    14.3294  15.5113  16.1742  17.2485  29.9420  30.4400  30.5391  30.9215

          k = 0.0625 0.0625 0.6875 (   146 PWs)   bands (ev):

    10.2591  10.4561  11.1468  11.5428  13.2769  13.7335  14.4773  14.6516
    14.9689  16.0010  18.6649  19.4164  27.7951  28.0896  28.3348  28.5482

          k = 0.0625 0.0625 0.8125 (   144 PWs)   bands (ev):

     9.9080   9.9101  10.9040  10.9503  13.9979  14.4616  14.9661  15.2529
    15.7628  16.3398  21.8274  22.3668  25.8987  26.1777  26.3467  26.5739

          k = 0.0625 0.0625 0.9375 (   143 PWs)   bands (ev):

     9.6140   9.6140  10.6336  10.6336  14.6569  15.0058  15.0058  15.9868
    16.3804  16.3804  24.7322  24.7322  25.0940  25.0940  25.1261  25.4523

          k = 0.0625 0.1875 0.1875 (   151 PWs)   bands (ev):

     7.2341   7.4959  11.8727  12.1002  13.0366  13.2489  13.2566  13.6604
    13.9234  14.4996  15.0931  15.3997  34.2315  34.6952  36.9587  37.2924

          k = 0.0625 0.1875 0.3125 (   152 PWs)   bands (ev):

     8.3003   8.6126  11.7214  12.0353  12.8651  13.1320  13.4614  13.8076
    14.1468  14.8488  15.0881  15.6250  31.4687  32.0118  35.1677  35.5461

          k = 0.0625 0.1875 0.4375 (   153 PWs)   bands (ev):

     9.4221   9.8941  11.6840  11.9900  12.7953  13.0635  13.3330  14.2469
    14.6414  14.8738  15.6025  16.1890  28.9408  29.5445  32.8943  33.3460

          k = 0.0625 0.0625-0.0625 (   141 PWs)   bands (ev):

     5.9510   6.1971  12.2417  12.2417  12.4718  13.4419  13.4419  13.6873
    13.8581  13.8581  15.3271  15.3271  38.9719  38.9719  39.2158  39.2158

          k = 0.0625 0.0625-0.1875 (   148 PWs)   bands (ev):

     6.6175   6.8682  12.1408  12.2149  12.7720  13.3255  13.4022  13.5632
    13.9999  14.0013  14.9919  15.4837  36.4899  36.8591  38.1008  38.4418

          k = 0.1875-0.0625 0.0625 (   148 PWs)   bands (ev):

     6.6175   6.8682  12.1408  12.2149  12.7720  13.3255  13.4022  13.5632
    13.9999  14.0013  14.9919  15.4837  36.4899  36.8592  38.1008  38.4418

          k = 0.1875 0.0625-0.0625 (   148 PWs)   bands (ev):

     6.6175   6.8682  12.1408  12.2149  12.7720  13.3255  13.4022  13.5632
    13.9999  14.0013  14.9919  15.4837  36.4899  36.8592  38.1008  38.4418

          k =-0.0625 0.1875 0.0625 (   148 PWs)   bands (ev):

     6.6175   6.8682  12.1408  12.2150  12.7720  13.3255  13.4022  13.5632
    13.9999  14.0013  14.9918  15.4837  36.4899  36.8592  38.1008  38.4418

          k =-0.0625-0.1875-0.0625 (   148 PWs)   bands (ev):

     6.6175   6.8682  12.1408  12.2149  12.7720  13.3255  13.4022  13.5632
    13.9999  14.0013  14.9918  15.4837  36.4899  36.8591  38.1008  38.4418

          k = 0.0625 0.0625-0.3125 (   152 PWs)   bands (ev):

     7.8218   8.0977  12.1704  12.1754  13.0709  13.1928  13.3360  13.3494
    14.2602  14.4238  14.4431  15.7460  34.1131  34.5976  35.7763  36.2006

          k = 0.3125-0.0625 0.0625 (   152 PWs)   bands (ev):

     7.8218   8.0977  12.1704  12.1754  13.0709  13.1928  13.3360  13.3494
    14.2602  14.4238  14.4431  15.7460  34.1131  34.5977  35.7763  36.2006

          k = 0.3125 0.0625-0.0625 (   152 PWs)   bands (ev):

     7.8218   8.0977  12.1704  12.1754  13.0709  13.1928  13.3360  13.3494
    14.2602  14.4238  14.4431  15.7460  34.1131  34.5976  35.7763  36.2006

          k =-0.0625 0.3125 0.0625 (   152 PWs)   bands (ev):

     7.8218   8.0977  12.1704  12.1754  13.0709  13.1928  13.3360  13.3494
    14.2602  14.4238  14.4431  15.7460  34.1131  34.5976  35.7763  36.2006

          k =-0.0625-0.3125-0.0625 (   152 PWs)   bands (ev):

     7.8218   8.0977  12.1704  12.1754  13.0709  13.1928  13.3360  13.3494
    14.2602  14.4238  14.4431  15.7460  34.1131  34.5977  35.7763  36.2006

          k = 0.0625 0.0625-0.4375 (   156 PWs)   bands (ev):

     9.2172   9.5967  11.8751  12.3830  12.8126  13.0633  13.5379  13.6903
    14.0545  14.7947  14.9744  16.1779  32.0178  32.5959  33.0370  33.5000

          k = 0.4375-0.0625 0.0625 (   156 PWs)   bands (ev):

     9.2172   9.5967  11.8751  12.3830  12.8126  13.0633  13.5379  13.6904
    14.0545  14.7947  14.9744  16.1779  32.0178  32.5959  33.0370  33.5000

          k = 0.4375 0.0625-0.0625 (   156 PWs)   bands (ev):

     9.2172   9.5967  11.8751  12.3830  12.8126  13.0633  13.5379  13.6903
    14.0545  14.7947  14.9744  16.1779  32.0178  32.5959  33.0370  33.5000

          k =-0.0625 0.4375 0.0625 (   156 PWs)   bands (ev):

     9.2172   9.5967  11.8751  12.3830  12.8126  13.0633  13.5379  13.6903
    14.0545  14.7947  14.9744  16.1779  32.0178  32.5959  33.0370  33.5000

          k =-0.0625-0.4375-0.0625 (   156 PWs)   bands (ev):

     9.2172   9.5967  11.8751  12.3830  12.8126  13.0633  13.5379  13.6904
    14.0545  14.7947  14.9744  16.1779  32.0178  32.5959  33.0370  33.5000

          k = 0.0625 0.0625-0.5625 (   148 PWs)   bands (ev):

    10.1577  10.7922  11.1715  12.3179  12.7388  13.1214  13.9140  14.1908
    14.3294  15.5113  16.1742  17.2485  29.9420  30.4400  30.5391  30.9215

          k = 0.5625-0.0625 0.0625 (   148 PWs)   bands (ev):

    10.1577  10.7922  11.1715  12.3179  12.7388  13.1214  13.9140  14.1908
    14.3294  15.5113  16.1742  17.2485  29.9420  30.4400  30.5391  30.9215

          k = 0.5625 0.0625-0.0625 (   148 PWs)   bands (ev):

    10.1577  10.7922  11.1715  12.3179  12.7388  13.1214  13.9140  14.1908
    14.3294  15.5113  16.1742  17.2485  29.9420  30.4400  30.5391  30.9215

          k =-0.0625 0.5625 0.0625 (   148 PWs)   bands (ev):

    10.1577  10.7922  11.1715  12.3179  12.7388  13.1214  13.9140  14.1908
    14.3294  15.5113  16.1742  17.2485  29.9420  30.4400  30.5391  30.9215

          k =-0.0625-0.5625-0.0625 (   148 PWs)   bands (ev):

    10.1577  10.7922  11.1715  12.3179  12.7388  13.1214  13.9140  14.1908
    14.3294  15.5113  16.1742  17.2485  29.9420  30.4400  30.5391  30.9215

          k = 0.0625 0.0625-0.6875 (   146 PWs)   bands (ev):

    10.2591  10.4561  11.1468  11.5428  13.2769  13.7335  14.4773  14.6516
    14.9689  16.0010  18.6649  19.4164  27.7951  28.0896  28.3348  28.5482

          k = 0.6875-0.0625 0.0625 (   146 PWs)   bands (ev):

    10.2591  10.4561  11.1468  11.5428  13.2769  13.7335  14.4773  14.6516
    14.9689  16.0010  18.6649  19.4164  27.7951  28.0896  28.3348  28.5482

          k = 0.6875 0.0625-0.0625 (   146 PWs)   bands (ev):

    10.2591  10.4561  11.1468  11.5428  13.2769  13.7335  14.4773  14.6516
    14.9689  16.0010  18.6649  19.4164  27.7951  28.0896  28.3348  28.5482

          k =-0.0625 0.6875 0.0625 (   146 PWs)   bands (ev):

    10.2591  10.4561  11.1468  11.5428  13.2769  13.7335  14.4773  14.6516
    14.9689  16.0010  18.6649  19.4164  27.7951  28.0896  28.3348  28.5482

          k =-0.0625-0.6875-0.0625 (   146 PWs)   bands (ev):

    10.2591  10.4561  11.1468  11.5428  13.2769  13.7335  14.4773  14.6516
    14.9689  16.0010  18.6649  19.4164  27.7951  28.0896  28.3348  28.5482

          k = 0.0625 0.0625-0.8125 (   144 PWs)   bands (ev):

     9.9080   9.9101  10.9040  10.9503  13.9979  14.4616  14.9660  15.2529
    15.7628  16.3398  21.8274  22.3668  25.8987  26.1777  26.3467  26.5739

          k = 0.8125-0.0625 0.0625 (   144 PWs)   bands (ev):

     9.9080   9.9101  10.9039  10.9503  13.9979  14.4616  14.9661  15.2529
    15.7628  16.3398  21.8274  22.3668  25.8987  26.1777  26.3467  26.5739

          k = 0.8125 0.0625-0.0625 (   144 PWs)   bands (ev):

     9.9080   9.9101  10.9039  10.9503  13.9979  14.4616  14.9660  15.2529
    15.7628  16.3398  21.8274  22.3668  25.8987  26.1777  26.3467  26.5739

          k =-0.0625 0.8125 0.0625 (   144 PWs)   bands (ev):

     9.9080   9.9101  10.9040  10.9503  13.9979  14.4616  14.9660  15.2529
    15.7628  16.3398  21.8274  22.3668  25.8987  26.1776  26.3467  26.5739

          k =-0.0625-0.8125-0.0625 (   144 PWs)   bands (ev):

     9.9080   9.9101  10.9040  10.9503  13.9979  14.4616  14.9661  15.2529
    15.7628  16.3398  21.8274  22.3668  25.8987  26.1777  26.3467  26.5739

          k = 0.0625 0.0625-0.9375 (   143 PWs)   bands (ev):

     9.6140   9.6140  10.6336  10.6336  14.6569  15.0057  15.0058  15.9868
    16.3803  16.3804  24.7322  24.7322  25.0940  25.0940  25.1261  25.4523

          k = 0.1875 0.0625-0.1875 (   151 PWs)   bands (ev):

     7.2341   7.4959  11.8727  12.1002  13.0366  13.2489  13.2566  13.6604
    13.9234  14.4996  15.0931  15.3997  34.2315  34.6952  36.9587  37.2924

          k =-0.1875-0.0625-0.1875 (   151 PWs)   bands (ev):

     7.2341   7.4959  11.8727  12.1003  13.0366  13.2489  13.2566  13.6604
    13.9234  14.4996  15.0931  15.3997  34.2315  34.6952  36.9587  37.2924

          k = 0.1875-0.1875 0.0625 (   151 PWs)   bands (ev):

     7.2341   7.4959  11.8727  12.1002  13.0366  13.2489  13.2566  13.6604
    13.9234  14.4996  15.0931  15.3997  34.2315  34.6952  36.9587  37.2924

          k = 0.1875 0.1875-0.0625 (   151 PWs)   bands (ev):

     7.2341   7.4959  11.8727  12.1003  13.0366  13.2489  13.2566  13.6604
    13.9234  14.4996  15.0931  15.3997  34.2315  34.6952  36.9587  37.2924

          k =-0.0625 0.1875 0.1875 (   151 PWs)   bands (ev):

     7.2341   7.4959  11.8727  12.1002  13.0366  13.2489  13.2566  13.6604
    13.9234  14.4996  15.0931  15.3997  34.2315  34.6952  36.9587  37.2924

          k = 0.1875 0.0625-0.3125 (   152 PWs)   bands (ev):

     8.3003   8.6126  11.7214  12.0353  12.8651  13.1320  13.4614  13.8076
    14.1468  14.8488  15.0881  15.6250  31.4687  32.0118  35.1677  35.5461

          k =-0.1875-0.0625-0.3125 (   152 PWs)   bands (ev):

     8.3003   8.6126  11.7214  12.0353  12.8650  13.1320  13.4614  13.8076
    14.1468  14.8488  15.0881  15.6250  31.4687  32.0118  35.1677  35.5461

          k = 0.3125-0.1875 0.0625 (   152 PWs)   bands (ev):

     8.3003   8.6126  11.7214  12.0353  12.8651  13.1320  13.4614  13.8076
    14.1468  14.8488  15.0881  15.6250  31.4687  32.0118  35.1677  35.5461

          k = 0.3125 0.1875-0.0625 (   152 PWs)   bands (ev):

     8.3003   8.6126  11.7214  12.0353  12.8651  13.1320  13.4614  13.8076
    14.1468  14.8488  15.0881  15.6250  31.4687  32.0118  35.1677  35.5461

          k =-0.0625 0.3125 0.1875 (   152 PWs)   bands (ev):

     8.3003   8.6126  11.7214  12.0353  12.8651  13.1320  13.4614  13.8076
    14.1468  14.8488  15.0881  15.6250  31.4687  32.0118  35.1677  35.5461

          k =-0.0625-0.3125-0.1875 (   152 PWs)   bands (ev):

     8.3003   8.6126  11.7214  12.0353  12.8651  13.1320  13.4614  13.8076
    14.1468  14.8488  15.0881  15.6250  31.4687  32.0118  35.1677  35.5461

          k = 0.1875 0.3125 0.0625 (   152 PWs)   bands (ev):

     8.3003   8.6126  11.7214  12.0353  12.8651  13.1320  13.4614  13.8076
    14.1468  14.8488  15.0881  15.6250  31.4687  32.0118  35.1677  35.5461

          k = 0.1875-0.3125-0.0625 (   152 PWs)   bands (ev):

     8.3003   8.6126  11.7214  12.0353  12.8651  13.1320  13.4614  13.8076
    14.1468  14.8488  15.0881  15.6250  31.4687  32.0118  35.1677  35.5461

          k = 0.3125 0.0625 0.1875 (   152 PWs)   bands (ev):

     8.3003   8.6126  11.7214  12.0353  12.8650  13.1320  13.4614  13.8076
    14.1468  14.8488  15.0881  15.6250  31.4687  32.0118  35.1677  35.5461

          k = 0.3125-0.0625-0.1875 (   152 PWs)   bands (ev):

     8.3003   8.6126  11.7214  12.0353  12.8651  13.1320  13.4614  13.8076
    14.1468  14.8488  15.0881  15.6250  31.4687  32.0118  35.1677  35.5461

          k =-0.0625-0.1875 0.3125 (   152 PWs)   bands (ev):

     8.3003   8.6126  11.7214  12.0353  12.8651  13.1320  13.4614  13.8076
    14.1468  14.8488  15.0881  15.6250  31.4687  32.0118  35.1677  35.5461

          k = 0.1875 0.0625-0.4375 (   153 PWs)   bands (ev):

     9.4221   9.8941  11.6840  11.9900  12.7953  13.0635  13.3330  14.2469
    14.6414  14.8738  15.6025  16.1890  28.9408  29.5445  32.8943  33.3460

          k =-0.1875-0.0625-0.4375 (   153 PWs)   bands (ev):

     9.4221   9.8941  11.6839  11.9900  12.7953  13.0635  13.3330  14.2469
    14.6414  14.8738  15.6025  16.1890  28.9408  29.5445  32.8943  33.3460

          k = 0.4375-0.1875 0.0625 (   153 PWs)   bands (ev):

     9.4221   9.8941  11.6840  11.9900  12.7953  13.0635  13.3330  14.2469
    14.6414  14.8738  15.6025  16.1890  28.9408  29.5445  32.8943  33.3460

          k = 0.4375 0.1875-0.0625 (   153 PWs)   bands (ev):

     9.4221   9.8941  11.6839  11.9900  12.7953  13.0635  13.3330  14.2469
    14.6414  14.8738  15.6025  16.1890  28.9408  29.5445  32.8943  33.3460

          k =-0.0625 0.4375 0.1875 (   153 PWs)   bands (ev):

     9.4221   9.8941  11.6840  11.9900  12.7953  13.0635  13.3330  14.2469
    14.6414  14.8738  15.6025  16.1890  28.9408  29.5445  32.8943  33.3460

          k =-0.0625-0.4375-0.1875 (   153 PWs)   bands (ev):

     9.4221   9.8941  11.6839  11.9900  12.7953  13.0635  13.3330  14.2469
    14.6414  14.8738  15.6025  16.1890  28.9408  29.5445  32.8943  33.3460

          k = 0.1875 0.4375 0.0625 (   153 PWs)   bands (ev):

     9.4221   9.8941  11.6839  11.9900  12.7953  13.0635  13.3330  14.2469
    14.6414  14.8738  15.6025  16.1890  28.9408  29.5445  32.8943  33.3460

          k = 0.1875-0.4375-0.0625 (   153 PWs)   bands (ev):

     9.4221   9.8941  11.6840  11.9900  12.7953  13.0635  13.3330  14.2469
    14.6414  14.8738  15.6025  16.1890  28.9408  29.5445  32.8943  33.3460

          k = 0.4375 0.0625 0.1875 (   153 PWs)   bands (ev):

     9.4221   9.8941  11.6839  11.9900  12.7953  13.0635  13.3330  14.2469
    14.6414  14.8738  15.6025  16.1890  28.9408  29.5445  32.8943  33.3460

          k = 0.4375-0.0625-0.1875 (   153 PWs)   bands (ev):

     9.4221   9.8941  11.6840  11.9900  12.7953  13.0635  13.3330  14.2469
    14.6414  14.8738  15.6025  16.1890  28.9408  29.5445  32.8943  33.3460

          k =-0.0625-0.1875 0.4375 (   153 PWs)   bands (ev):

     9.4221   9.8941  11.6839  11.9900  12.7953  13.0635  13.3330  14.2469
    14.6414  14.8738  15.6025  16.1890  28.9408  29.5445  32.8943  33.3460

     the Fermi energy is    14.3667 ev

!    total energy              =     -55.69028962 Ry
     Harris-Foulkes estimate   =     -55.69028834 Ry
     estimated scf accuracy    <          4.5E-09 Ry

     The total energy is the sum of the following terms:

     one-electron contribution =       8.87171220 Ry
     hartree contribution      =       6.00656601 Ry
     xc contribution           =     -25.92653950 Ry
     ewald contribution        =     -44.64461207 Ry
     smearing contrib. (-TS)   =       0.00258373 Ry

     total magnetization       =     1.66    -0.00     0.14 Bohr mag/cell
     absolute magnetization    =     1.66 Bohr mag/cell
     lambda                    =       1.00 Ry

     convergence has been achieved in  17 iterations

     Writing output data file fe.save
 
     init_run     :      0.38s CPU      0.42s WALL (       1 calls)
     electrons    :     12.12s CPU     12.41s WALL (       1 calls)

     Called by init_run:
     wfcinit      :      0.18s CPU      0.20s WALL (       1 calls)
     potinit      :      0.01s CPU      0.01s WALL (       1 calls)

     Called by electrons:
     c_bands      :      9.93s CPU     10.17s WALL (      17 calls)
     sum_band     :      2.03s CPU      2.09s WALL (      17 calls)
     v_of_rho     :      0.04s CPU      0.04s WALL (      18 calls)
     newd         :      0.07s CPU      0.07s WALL (      18 calls)
     mix_rho      :      0.03s CPU      0.03s WALL (      17 calls)

     Called by c_bands:
     init_us_2    :      0.09s CPU      0.08s WALL (    2450 calls)
     cegterg      :      9.45s CPU      9.71s WALL (    1190 calls)

     Called by sum_band:
     sum_band:bec :      0.02s CPU      0.03s WALL (    1190 calls)
     addusdens    :      0.28s CPU      0.28s WALL (      17 calls)

     Called by *egterg:
     h_psi        :      6.63s CPU      6.80s WALL (    3850 calls)
     s_psi        :      0.18s CPU      0.17s WALL (    3850 calls)
     g_psi        :      0.05s CPU      0.05s WALL (    2590 calls)
     cdiaghg      :      2.00s CPU      2.01s WALL (    3780 calls)

     Called by h_psi:
     h_psi:pot    :      6.62s CPU      6.77s WALL (    3850 calls)
     h_psi:calbec :      0.21s CPU      0.17s WALL (    3850 calls)
     add_vuspsi   :      0.20s CPU      0.20s WALL (    3850 calls)

     General routines
     calbec       :      0.27s CPU      0.23s WALL (    5040 calls)
     fft          :      0.05s CPU      0.06s WALL (     572 calls)
     ffts         :      0.01s CPU      0.01s WALL (     140 calls)
     fftw         :      5.72s CPU      6.01s WALL (  219256 calls)
     interpolate  :      0.02s CPU      0.02s WALL (     140 calls)
 
     Parallel routines
     fft_scatter  :      1.41s CPU      1.70s WALL (  219968 calls)
 
     PWSCF        :    12.73s CPU        13.09s WALL

 
   This run was terminated on:  14:33: 6  23Aug2016            

=------------------------------------------------------------------------------=
   JOB DONE.
=------------------------------------------------------------------------------=
