
     Program PWSCF v.5.4.0 (svn rev. 12590M) starts on 21Jul2016 at 15:35:17 

     This program is part of the open-source Quantum ESPRESSO suite
     for quantum simulation of materials; please cite
         "P. Giannozzi et al., J. Phys.:Condens. Matter 21 395502 (2009);
          URL http://www.quantum-espresso.org", 
     in publications or presentations arising from this work. More details at
     http://www.quantum-espresso.org/quote
 
           HOST :    x86_64-pc-linux-gnu
           ARCH :    x86_64
             CC :    icc
            CPP :    cpp
            F90 :    gfortran
            F77 :    gfortran
         DFLAGS :    -D__GFORTRAN -D__STD_F95 -D__DFTI -D__MPI -D__PARA -D__HDF5
      BLAS LIBS :    -lmkl_gf_lp64  -lmkl_sequential -lmkl_core
    LAPACK LIBS :    
       FFT LIBS :    
      MASS LIBS :    

     Parallel version (MPI), running on     2 processors
     R & G space division:  proc/nbgrp/npool/nimage =       2
     Waiting for input...
     Reading input from standard input
     Message from routine read_cards :
     DEPRECATED: no units specified in ATOMIC_POSITIONS card
     Message from routine read_cards :
     ATOMIC_POSITIONS: units set to alat

     Current dimensions of program PWSCF are:
     Max number of different atomic species (ntypx) = 10
     Max number of k-points (npk) =  40000
     Max angular momentum in pseudopotentials (lmaxx) =  3
               file Fe.pz-nd-rrkjus.UPF: wavefunction(s)  4S renormalized

     Subspace diagonalization in iterative solution of the eigenvalue problem:
     a serial algorithm will be used

 
     Parallelization info
     --------------------
     sticks:   dense  smooth     PW     G-vecs:    dense   smooth      PW
     Min         153      77     27                 1683      601     124
     Max         154      78     28                 1684      604     125
     Sum         307     155     55                 3367     1205     249
 
     Generating pointlists ...
     new r_m :   0.3572 (alat units)  1.8637 (a.u.) for type    1


     bravais-lattice index     =            3
     lattice parameter (alat)  =       5.2170  a.u.
     unit-cell volume          =      70.9958 (a.u.)^3
     number of atoms/cell      =            1
     number of atomic types    =            1
     number of electrons       =         8.00
     number of Kohn-Sham states=           16
     kinetic-energy cutoff     =      25.0000  Ry
     charge density cutoff     =     200.0000  Ry
     convergence threshold     =      1.0E-08
     mixing beta               =       0.2000
     number of iterations used =            8  plain     mixing
     Exchange-correlation      =  SLA  PZ   NOGX NOGC ( 1  1  0  0 0 0)
     Noncollinear calculation without spin-orbit


     celldm(1)=   5.217000  celldm(2)=   0.000000  celldm(3)=   0.000000
     celldm(4)=   0.000000  celldm(5)=   0.000000  celldm(6)=   0.000000

     crystal axes: (cart. coord. in units of alat)
               a(1) = (   0.500000   0.500000   0.500000 )  
               a(2) = (  -0.500000   0.500000   0.500000 )  
               a(3) = (  -0.500000  -0.500000   0.500000 )  

     reciprocal axes: (cart. coord. in units 2 pi/alat)
               b(1) = (  1.000000  0.000000  1.000000 )  
               b(2) = ( -1.000000  1.000000  0.000000 )  
               b(3) = (  0.000000 -1.000000  1.000000 )  


     PseudoPot. # 1 for Fe read from file:
     /home/nvarini/espresso_hdf5/espresso/pseudo/Fe.pz-nd-rrkjus.UPF
     MD5 check sum: 2e083728ad07023434bc1cc596eb954d
     Pseudo is Ultrasoft + core correction, Zval =  8.0
     Generated by new atomic code, or converted to UPF format
     Using radial grid of  957 points,  6 beta functions with: 
                l(1) =   0
                l(2) =   0
                l(3) =   1
                l(4) =   1
                l(5) =   2
                l(6) =   2
     Q(r) pseudized with 0 coefficients 


     atomic species   valence    mass     pseudopotential
        Fe             8.00    55.84700     Fe( 1.00)

      4 Sym. Ops., with inversion, found



   Cartesian axes

     site n.     atom                  positions (alat units)
         1           Fe  tau(   1) = (   0.0000000   0.0000000   0.0000000  )

     number of k points=    70  Marzari-Vanderbilt smearing, width (Ry)=  0.0500
                       cart. coord. in units 2pi/alat
        k(    1) = (   0.0625000   0.0625000   0.0625000), wk =   0.0135135
        k(    2) = (   0.0625000   0.0625000   0.1875000), wk =   0.0135135
        k(    3) = (   0.0625000   0.0625000   0.3125000), wk =   0.0135135
        k(    4) = (   0.0625000   0.0625000   0.4375000), wk =   0.0135135
        k(    5) = (   0.0625000   0.0625000   0.5625000), wk =   0.0135135
        k(    6) = (   0.0625000   0.0625000   0.6875000), wk =   0.0135135
        k(    7) = (   0.0625000   0.0625000   0.8125000), wk =   0.0135135
        k(    8) = (   0.0625000   0.0625000   0.9375000), wk =   0.0405405
        k(    9) = (   0.0625000   0.1875000   0.1875000), wk =   0.0135135
        k(   10) = (   0.0625000   0.1875000   0.3125000), wk =   0.0135135
        k(   11) = (   0.0625000   0.1875000   0.4375000), wk =   0.0135135
        k(   12) = (   0.0625000   0.0625000  -0.0625000), wk =   0.0135135
        k(   13) = (   0.0625000   0.0625000  -0.1875000), wk =   0.0135135
        k(   14) = (   0.1875000  -0.0625000   0.0625000), wk =   0.0135135
        k(   15) = (   0.1875000   0.0625000  -0.0625000), wk =   0.0135135
        k(   16) = (  -0.0625000   0.1875000   0.0625000), wk =   0.0135135
        k(   17) = (  -0.0625000  -0.1875000  -0.0625000), wk =   0.0135135
        k(   18) = (   0.0625000   0.0625000  -0.3125000), wk =   0.0135135
        k(   19) = (   0.3125000  -0.0625000   0.0625000), wk =   0.0135135
        k(   20) = (   0.3125000   0.0625000  -0.0625000), wk =   0.0135135
        k(   21) = (  -0.0625000   0.3125000   0.0625000), wk =   0.0135135
        k(   22) = (  -0.0625000  -0.3125000  -0.0625000), wk =   0.0135135
        k(   23) = (   0.0625000   0.0625000  -0.4375000), wk =   0.0135135
        k(   24) = (   0.4375000  -0.0625000   0.0625000), wk =   0.0135135
        k(   25) = (   0.4375000   0.0625000  -0.0625000), wk =   0.0135135
        k(   26) = (  -0.0625000   0.4375000   0.0625000), wk =   0.0135135
        k(   27) = (  -0.0625000  -0.4375000  -0.0625000), wk =   0.0135135
        k(   28) = (   0.0625000   0.0625000  -0.5625000), wk =   0.0135135
        k(   29) = (   0.5625000  -0.0625000   0.0625000), wk =   0.0135135
        k(   30) = (   0.5625000   0.0625000  -0.0625000), wk =   0.0135135
        k(   31) = (  -0.0625000   0.5625000   0.0625000), wk =   0.0135135
        k(   32) = (  -0.0625000  -0.5625000  -0.0625000), wk =   0.0135135
        k(   33) = (   0.0625000   0.0625000  -0.6875000), wk =   0.0135135
        k(   34) = (   0.6875000  -0.0625000   0.0625000), wk =   0.0135135
        k(   35) = (   0.6875000   0.0625000  -0.0625000), wk =   0.0135135
        k(   36) = (  -0.0625000   0.6875000   0.0625000), wk =   0.0135135
        k(   37) = (  -0.0625000  -0.6875000  -0.0625000), wk =   0.0135135
        k(   38) = (   0.0625000   0.0625000  -0.8125000), wk =   0.0135135
        k(   39) = (   0.8125000  -0.0625000   0.0625000), wk =   0.0135135
        k(   40) = (   0.8125000   0.0625000  -0.0625000), wk =   0.0135135
        k(   41) = (  -0.0625000   0.8125000   0.0625000), wk =   0.0135135
        k(   42) = (  -0.0625000  -0.8125000  -0.0625000), wk =   0.0135135
        k(   43) = (   0.0625000   0.0625000  -0.9375000), wk =   0.0405405
        k(   44) = (   0.1875000   0.0625000  -0.1875000), wk =   0.0135135
        k(   45) = (  -0.1875000  -0.0625000  -0.1875000), wk =   0.0135135
        k(   46) = (   0.1875000  -0.1875000   0.0625000), wk =   0.0135135
        k(   47) = (   0.1875000   0.1875000  -0.0625000), wk =   0.0135135
        k(   48) = (  -0.0625000   0.1875000   0.1875000), wk =   0.0135135
        k(   49) = (   0.1875000   0.0625000  -0.3125000), wk =   0.0135135
        k(   50) = (  -0.1875000  -0.0625000  -0.3125000), wk =   0.0135135
        k(   51) = (   0.3125000  -0.1875000   0.0625000), wk =   0.0135135
        k(   52) = (   0.3125000   0.1875000  -0.0625000), wk =   0.0135135
        k(   53) = (  -0.0625000   0.3125000   0.1875000), wk =   0.0135135
        k(   54) = (  -0.0625000  -0.3125000  -0.1875000), wk =   0.0135135
        k(   55) = (   0.1875000   0.3125000   0.0625000), wk =   0.0135135
        k(   56) = (   0.1875000  -0.3125000  -0.0625000), wk =   0.0135135
        k(   57) = (   0.3125000   0.0625000   0.1875000), wk =   0.0135135
        k(   58) = (   0.3125000  -0.0625000  -0.1875000), wk =   0.0135135
        k(   59) = (  -0.0625000  -0.1875000   0.3125000), wk =   0.0135135
        k(   60) = (   0.1875000   0.0625000  -0.4375000), wk =   0.0135135
        k(   61) = (  -0.1875000  -0.0625000  -0.4375000), wk =   0.0135135
        k(   62) = (   0.4375000  -0.1875000   0.0625000), wk =   0.0135135
        k(   63) = (   0.4375000   0.1875000  -0.0625000), wk =   0.0135135
        k(   64) = (  -0.0625000   0.4375000   0.1875000), wk =   0.0135135
        k(   65) = (  -0.0625000  -0.4375000  -0.1875000), wk =   0.0135135
        k(   66) = (   0.1875000   0.4375000   0.0625000), wk =   0.0135135
        k(   67) = (   0.1875000  -0.4375000  -0.0625000), wk =   0.0135135
        k(   68) = (   0.4375000   0.0625000   0.1875000), wk =   0.0135135
        k(   69) = (   0.4375000  -0.0625000  -0.1875000), wk =   0.0135135
        k(   70) = (  -0.0625000  -0.1875000   0.4375000), wk =   0.0135135

     Dense  grid:     3367 G-vectors     FFT dimensions: (  24,  24,  24)

     Smooth grid:     1205 G-vectors     FFT dimensions: (  15,  15,  15)

     Largest allocated arrays     est. size (Mb)     dimensions
        Kohn-Sham Wavefunctions         0.04 Mb     (     160,   16)
        NL pseudopotentials             0.02 Mb     (      80,   18)
        Each V/rho on FFT grid          0.11 Mb     (    6912)
        Each G-vector array             0.01 Mb     (    1684)
        G-vector shells                 0.00 Mb     (      64)
     Largest temporary arrays     est. size (Mb)     dimensions
        Auxiliary wavefunctions         0.16 Mb     (     160,   64)
        Each subspace H/S matrix        0.06 Mb     (      64,   64)
        Each <psi_i|beta_j> matrix      0.01 Mb     (      18,   2,   16)
        Arrays for rho mixing           0.84 Mb     (    6912,    8)

     Check: negative/imaginary core charge=   -0.000013    0.000000

     Initial potential from superposition of free atoms

     starting charge    7.99953, renormalised to    8.00000
     constraint energy (Ryd) =      8.02202247

 ==============================================================================
     atom number    1 relative position :    0.0000   0.0000   0.0000
     charge :     6.664635
     magnetization :          3.319637    0.000000    0.290431
     magnetization/charge:    0.498097    0.000000    0.043578
     polar coord.: r, theta, phi [deg] :     3.332318   85.000000    0.000000
     constrained moment :     0.498097    0.000000    0.043578

 ==============================================================================
     Starting wfc are   12 randomized atomic wfcs +    4 random wfc

     total cpu time spent up to now is        0.5 secs

     per-process dynamical memory:     7.6 Mb

     Self-consistent Calculation

     iteration #  1     ecut=    25.00 Ry     beta=0.20
     Davidson diagonalization with overlap
     ethr =  1.00E-02,  avg # of iterations =  4.3
     constraint energy (Ryd) =      6.78561381

 ==============================================================================
     atom number    1 relative position :    0.0000   0.0000   0.0000
     charge :     6.568740
     magnetization :          3.093105    0.000000    0.270617
     magnetization/charge:    0.470883    0.000000    0.041198
     polar coord.: r, theta, phi [deg] :     3.104921   84.999910    0.000000
     constrained moment :     0.498097    0.000000    0.043578

 ==============================================================================

     total cpu time spent up to now is        1.5 secs

     total energy              =     -55.70592620 Ry
     Harris-Foulkes estimate   =     -55.76531253 Ry
     estimated scf accuracy    <       0.24771944 Ry

     total magnetization       =     2.35    -0.00     0.21 Bohr mag/cell
     absolute magnetization    =     2.36 Bohr mag/cell
     lambda                    =       1.00 Ry

     iteration #  2     ecut=    25.00 Ry     beta=0.20
     Davidson diagonalization with overlap
     ethr =  3.10E-03,  avg # of iterations =  1.0
     constraint energy (Ryd) =      4.85614654

 ==============================================================================
     atom number    1 relative position :    0.0000   0.0000   0.0000
     charge :     6.433587
     magnetization :          2.693378   -0.000000    0.235642
     magnetization/charge:    0.418643   -0.000000    0.036627
     polar coord.: r, theta, phi [deg] :     2.703667   84.999968    0.000000
     constrained moment :     0.498097    0.000000    0.043578

 ==============================================================================

     total cpu time spent up to now is        2.1 secs

     total energy              =     -55.68120311 Ry
     Harris-Foulkes estimate   =     -55.71644345 Ry
     estimated scf accuracy    <       0.08265360 Ry

     total magnetization       =     2.36     0.00     0.21 Bohr mag/cell
     absolute magnetization    =     2.37 Bohr mag/cell
     lambda                    =       1.00 Ry

     iteration #  3     ecut=    25.00 Ry     beta=0.20
     Davidson diagonalization with overlap
     ethr =  1.03E-03,  avg # of iterations =  2.1
     constraint energy (Ryd) =      3.68233382

 ==============================================================================
     atom number    1 relative position :    0.0000   0.0000   0.0000
     charge :     6.423270
     magnetization :          2.409736    0.000000    0.210824
     magnetization/charge:    0.375157    0.000000    0.032822
     polar coord.: r, theta, phi [deg] :     2.418941   85.000018    0.000000
     constrained moment :     0.498097    0.000000    0.043578

 ==============================================================================

     total cpu time spent up to now is        2.8 secs

     total energy              =     -55.69771794 Ry
     Harris-Foulkes estimate   =     -55.69837904 Ry
     estimated scf accuracy    <       0.00391254 Ry

     total magnetization       =     2.32     0.00     0.20 Bohr mag/cell
     absolute magnetization    =     2.33 Bohr mag/cell
     lambda                    =       1.00 Ry

     iteration #  4     ecut=    25.00 Ry     beta=0.20
     Davidson diagonalization with overlap
     ethr =  4.89E-05,  avg # of iterations =  3.2
     constraint energy (Ryd) =      2.11651831

 ==============================================================================
     atom number    1 relative position :    0.0000   0.0000   0.0000
     charge :     6.374025
     magnetization :          1.947387    0.000000    0.170373
     magnetization/charge:    0.305519    0.000000    0.026729
     polar coord.: r, theta, phi [deg] :     1.954826   85.000041    0.000000
     constrained moment :     0.498097    0.000000    0.043578

 ==============================================================================

     total cpu time spent up to now is        3.7 secs

     total energy              =     -55.69204923 Ry
     Harris-Foulkes estimate   =     -55.69902393 Ry
     estimated scf accuracy    <       0.00269610 Ry

     total magnetization       =     2.14     0.00     0.19 Bohr mag/cell
     absolute magnetization    =     2.15 Bohr mag/cell
     lambda                    =       1.00 Ry

     iteration #  5     ecut=    25.00 Ry     beta=0.20
     Davidson diagonalization with overlap
     ethr =  3.37E-05,  avg # of iterations =  2.2
     constraint energy (Ryd) =      1.60671777

 ==============================================================================
     atom number    1 relative position :    0.0000   0.0000   0.0000
     charge :     6.403933
     magnetization :          1.760837    0.000000    0.154056
     magnetization/charge:    0.274962    0.000000    0.024056
     polar coord.: r, theta, phi [deg] :     1.767564   84.999926    0.000000
     constrained moment :     0.498097    0.000000    0.043578

 ==============================================================================

     total cpu time spent up to now is        4.4 secs

     total energy              =     -55.69105532 Ry
     Harris-Foulkes estimate   =     -55.69394902 Ry
     estimated scf accuracy    <       0.00168128 Ry

     total magnetization       =     1.92     0.00     0.17 Bohr mag/cell
     absolute magnetization    =     1.94 Bohr mag/cell
     lambda                    =       1.00 Ry

     iteration #  6     ecut=    25.00 Ry     beta=0.20
     Davidson diagonalization with overlap
     ethr =  2.10E-05,  avg # of iterations =  2.0
     constraint energy (Ryd) =      1.33918716

 ==============================================================================
     atom number    1 relative position :    0.0000   0.0000   0.0000
     charge :     6.405921
     magnetization :          1.650926   -0.000000    0.144440
     magnetization/charge:    0.257719   -0.000000    0.022548
     polar coord.: r, theta, phi [deg] :     1.657233   84.999919    0.000000
     constrained moment :     0.498097    0.000000    0.043578

 ==============================================================================

     total cpu time spent up to now is        5.1 secs

     total energy              =     -55.69055661 Ry
     Harris-Foulkes estimate   =     -55.69189492 Ry
     estimated scf accuracy    <       0.00020840 Ry

     total magnetization       =     1.77     0.00     0.16 Bohr mag/cell
     absolute magnetization    =     1.78 Bohr mag/cell
     lambda                    =       1.00 Ry

     iteration #  7     ecut=    25.00 Ry     beta=0.20
     Davidson diagonalization with overlap
     ethr =  2.60E-06,  avg # of iterations =  3.0
     constraint energy (Ryd) =      1.30377710

 ==============================================================================
     atom number    1 relative position :    0.0000   0.0000   0.0000
     charge :     6.405733
     magnetization :          1.635583   -0.000000    0.143097
     magnetization/charge:    0.255331   -0.000000    0.022339
     polar coord.: r, theta, phi [deg] :     1.641831   84.999935    0.000000
     constrained moment :     0.498097    0.000000    0.043578

 ==============================================================================

     total cpu time spent up to now is        5.9 secs

     total energy              =     -55.69059486 Ry
     Harris-Foulkes estimate   =     -55.69076769 Ry
     estimated scf accuracy    <       0.00007145 Ry

     total magnetization       =     1.69    -0.00     0.15 Bohr mag/cell
     absolute magnetization    =     1.70 Bohr mag/cell
     lambda                    =       1.00 Ry

     iteration #  8     ecut=    25.00 Ry     beta=0.20
     Davidson diagonalization with overlap
     ethr =  8.93E-07,  avg # of iterations =  1.0
     constraint energy (Ryd) =      1.80654071

 ==============================================================================
     atom number    1 relative position :    0.0000   0.0000   0.0000
     charge :     6.403362
     magnetization :          1.837059   -0.000000    0.160725
     magnetization/charge:    0.286890   -0.000000    0.025100
     polar coord.: r, theta, phi [deg] :     1.844076   84.999911    0.000000
     constrained moment :     0.498097    0.000000    0.043578

 ==============================================================================

     total cpu time spent up to now is        6.5 secs

     total energy              =     -55.69248474 Ry
     Harris-Foulkes estimate   =     -55.69059857 Ry
     estimated scf accuracy    <       0.00005712 Ry

     total magnetization       =     1.68     0.00     0.15 Bohr mag/cell
     absolute magnetization    =     1.69 Bohr mag/cell
     lambda                    =       1.00 Ry

     iteration #  9     ecut=    25.00 Ry     beta=0.20
     Davidson diagonalization with overlap
     ethr =  7.14E-07,  avg # of iterations =  2.3
     constraint energy (Ryd) =      1.22570914

 ==============================================================================
     atom number    1 relative position :    0.0000   0.0000   0.0000
     charge :     6.403594
     magnetization :          1.601002   -0.000000    0.140069
     magnetization/charge:    0.250016   -0.000000    0.021873
     polar coord.: r, theta, phi [deg] :     1.607117   85.000032    0.000000
     constrained moment :     0.498097    0.000000    0.043578

 ==============================================================================

     total cpu time spent up to now is        7.3 secs

     total energy              =     -55.68955342 Ry
     Harris-Foulkes estimate   =     -55.69292845 Ry
     estimated scf accuracy    <       0.00024926 Ry

     total magnetization       =     1.82    -0.00     0.16 Bohr mag/cell
     absolute magnetization    =     1.83 Bohr mag/cell
     lambda                    =       1.00 Ry

     iteration # 10     ecut=    25.00 Ry     beta=0.20
     Davidson diagonalization with overlap
     ethr =  7.14E-07,  avg # of iterations =  2.6
     constraint energy (Ryd) =      1.24881703

 ==============================================================================
     atom number    1 relative position :    0.0000   0.0000   0.0000
     charge :     6.403262
     magnetization :          1.611350   -0.000000    0.140975
     magnetization/charge:    0.251645   -0.000000    0.022016
     polar coord.: r, theta, phi [deg] :     1.617505   85.000003    0.000000
     constrained moment :     0.498097    0.000000    0.043578

 ==============================================================================

     total cpu time spent up to now is        8.1 secs

     total energy              =     -55.69033047 Ry
     Harris-Foulkes estimate   =     -55.69021024 Ry
     estimated scf accuracy    <       0.00000656 Ry

     total magnetization       =     1.65     0.00     0.14 Bohr mag/cell
     absolute magnetization    =     1.66 Bohr mag/cell
     lambda                    =       1.00 Ry

     iteration # 11     ecut=    25.00 Ry     beta=0.20
     Davidson diagonalization with overlap
     ethr =  8.21E-08,  avg # of iterations =  1.4
     constraint energy (Ryd) =      1.24908771

 ==============================================================================
     atom number    1 relative position :    0.0000   0.0000   0.0000
     charge :     6.403079
     magnetization :          1.611470   -0.000000    0.140990
     magnetization/charge:    0.251671   -0.000000    0.022019
     polar coord.: r, theta, phi [deg] :     1.617626   84.999846    0.000000
     constrained moment :     0.498097    0.000000    0.043578

 ==============================================================================

     total cpu time spent up to now is        8.7 secs

     total energy              =     -55.69033519 Ry
     Harris-Foulkes estimate   =     -55.69033206 Ry
     estimated scf accuracy    <       0.00000155 Ry

     total magnetization       =     1.66    -0.00     0.15 Bohr mag/cell
     absolute magnetization    =     1.67 Bohr mag/cell
     lambda                    =       1.00 Ry

     iteration # 12     ecut=    25.00 Ry     beta=0.20
     Davidson diagonalization with overlap
     ethr =  1.93E-08,  avg # of iterations =  2.4
     constraint energy (Ryd) =      1.24297953

 ==============================================================================
     atom number    1 relative position :    0.0000   0.0000   0.0000
     charge :     6.403001
     magnetization :          1.608744   -0.000000    0.140754
     magnetization/charge:    0.251248   -0.000000    0.021983
     polar coord.: r, theta, phi [deg] :     1.614890   84.999742    0.000000
     constrained moment :     0.498097    0.000000    0.043578

 ==============================================================================

     total cpu time spent up to now is        9.4 secs

     total energy              =     -55.69030518 Ry
     Harris-Foulkes estimate   =     -55.69033536 Ry
     estimated scf accuracy    <       0.00000028 Ry

     total magnetization       =     1.66    -0.00     0.15 Bohr mag/cell
     absolute magnetization    =     1.67 Bohr mag/cell
     lambda                    =       1.00 Ry

     iteration # 13     ecut=    25.00 Ry     beta=0.20
     Davidson diagonalization with overlap
     ethr =  3.49E-09,  avg # of iterations =  2.7
     constraint energy (Ryd) =      1.24128769

 ==============================================================================
     atom number    1 relative position :    0.0000   0.0000   0.0000
     charge :     6.402944
     magnetization :          1.607988   -0.000000    0.140689
     magnetization/charge:    0.251133   -0.000000    0.021973
     polar coord.: r, theta, phi [deg] :     1.614131   84.999692    0.000000
     constrained moment :     0.498097    0.000000    0.043578

 ==============================================================================

     total cpu time spent up to now is       10.2 secs

     total energy              =     -55.69029738 Ry
     Harris-Foulkes estimate   =     -55.69030528 Ry
     estimated scf accuracy    <       0.00000011 Ry

     total magnetization       =     1.66    -0.00     0.15 Bohr mag/cell
     absolute magnetization    =     1.66 Bohr mag/cell
     lambda                    =       1.00 Ry

     iteration # 14     ecut=    25.00 Ry     beta=0.20
     Davidson diagonalization with overlap
     ethr =  1.36E-09,  avg # of iterations =  2.1
     constraint energy (Ryd) =      1.24049662

 ==============================================================================
     atom number    1 relative position :    0.0000   0.0000   0.0000
     charge :     6.402960
     magnetization :          1.607634   -0.000000    0.140660
     magnetization/charge:    0.251077   -0.000000    0.021968
     polar coord.: r, theta, phi [deg] :     1.613776   84.999654    0.000000
     constrained moment :     0.498097    0.000000    0.043578

 ==============================================================================

     total cpu time spent up to now is       10.9 secs

     End of self-consistent calculation

          k = 0.0625 0.0625 0.0625 (   141 PWs)   bands (ev):

     5.9510   6.1972  12.2411  12.2411  12.4712  13.4416  13.4416  13.6871
    13.8574  13.8574  15.3269  15.3269  38.9719  38.9719  39.2158  39.2158

          k = 0.0625 0.0625 0.1875 (   148 PWs)   bands (ev):

     6.6174   6.8683  12.1402  12.2143  12.7714  13.3252  13.4020  13.5625
    13.9992  14.0010  14.9917  15.4835  36.4898  36.8592  38.1007  38.4418

          k = 0.0625 0.0625 0.3125 (   152 PWs)   bands (ev):

     7.8217   8.0977  12.1698  12.1748  13.0703  13.1922  13.3358  13.3492
    14.2595  14.4236  14.4428  15.7458  34.1130  34.5976  35.7762  36.2006

          k = 0.0625 0.0625 0.4375 (   156 PWs)   bands (ev):

     9.2170   9.5968  11.8745  12.3824  12.8120  13.0631  13.5377  13.6897
    14.0543  14.7941  14.9741  16.1778  32.0176  32.5959  33.0368  33.5000

          k = 0.0625 0.0625 0.5625 (   148 PWs)   bands (ev):

    10.1574  10.7922  11.1709  12.3178  12.7382  13.1208  13.9138  14.1901
    14.3292  15.5110  16.1737  17.2484  29.9417  30.4398  30.5391  30.9216

          k = 0.0625 0.0625 0.6875 (   146 PWs)   bands (ev):

    10.2587  10.4556  11.1468  11.5427  13.2763  13.7329  14.4771  14.6509
    14.9687  16.0007  18.6645  19.4164  27.7948  28.0894  28.3348  28.5482

          k = 0.0625 0.0625 0.8125 (   144 PWs)   bands (ev):

     9.9075   9.9097  10.9039  10.9502  13.9973  14.4609  14.9653  15.2526
    15.7625  16.3395  21.8272  22.3669  25.8985  26.1774  26.3468  26.5740

          k = 0.0625 0.0625 0.9375 (   143 PWs)   bands (ev):

     9.6135   9.6135  10.6335  10.6335  14.6562  15.0050  15.0050  15.9865
    16.3800  16.3800  24.7320  24.7320  25.0941  25.0941  25.1259  25.4524

          k = 0.0625 0.1875 0.1875 (   151 PWs)   bands (ev):

     7.2340   7.4960  11.8720  12.0996  13.0364  13.2482  13.2564  13.6597
    13.9227  14.4993  15.0929  15.3995  34.2314  34.6952  36.9587  37.2924

          k = 0.0625 0.1875 0.3125 (   152 PWs)   bands (ev):

     8.3002   8.6126  11.7208  12.0348  12.8648  13.1318  13.4607  13.8070
    14.1460  14.8486  15.0879  15.6248  31.4685  32.0118  35.1676  35.5461

          k = 0.0625 0.1875 0.4375 (   153 PWs)   bands (ev):

     9.4219   9.8942  11.6834  11.9894  12.7951  13.0634  13.3323  14.2462
    14.6412  14.8732  15.6022  16.1888  28.9406  29.5445  32.8941  33.3460

          k = 0.0625 0.0625-0.0625 (   141 PWs)   bands (ev):

     5.9510   6.1972  12.2411  12.2411  12.4712  13.4416  13.4416  13.6871
    13.8574  13.8574  15.3269  15.3269  38.9719  38.9719  39.2158  39.2158

          k = 0.0625 0.0625-0.1875 (   148 PWs)   bands (ev):

     6.6174   6.8683  12.1402  12.2143  12.7714  13.3252  13.4020  13.5625
    13.9992  14.0010  14.9917  15.4835  36.4898  36.8591  38.1007  38.4418

          k = 0.1875-0.0625 0.0625 (   148 PWs)   bands (ev):

     6.6174   6.8683  12.1402  12.2143  12.7714  13.3252  13.4020  13.5625
    13.9992  14.0010  14.9917  15.4835  36.4898  36.8592  38.1007  38.4418

          k = 0.1875 0.0625-0.0625 (   148 PWs)   bands (ev):

     6.6174   6.8683  12.1402  12.2143  12.7714  13.3252  13.4020  13.5625
    13.9992  14.0010  14.9917  15.4835  36.4898  36.8591  38.1007  38.4418

          k =-0.0625 0.1875 0.0625 (   148 PWs)   bands (ev):

     6.6174   6.8683  12.1402  12.2143  12.7714  13.3252  13.4020  13.5625
    13.9992  14.0010  14.9917  15.4835  36.4898  36.8592  38.1007  38.4418

          k =-0.0625-0.1875-0.0625 (   148 PWs)   bands (ev):

     6.6174   6.8683  12.1402  12.2143  12.7714  13.3252  13.4020  13.5625
    13.9992  14.0010  14.9917  15.4835  36.4898  36.8592  38.1007  38.4418

          k = 0.0625 0.0625-0.3125 (   152 PWs)   bands (ev):

     7.8217   8.0977  12.1698  12.1748  13.0703  13.1922  13.3358  13.3492
    14.2595  14.4236  14.4428  15.7458  34.1130  34.5976  35.7762  36.2006

          k = 0.3125-0.0625 0.0625 (   152 PWs)   bands (ev):

     7.8217   8.0977  12.1698  12.1748  13.0703  13.1922  13.3358  13.3492
    14.2595  14.4236  14.4428  15.7458  34.1130  34.5976  35.7762  36.2006

          k = 0.3125 0.0625-0.0625 (   152 PWs)   bands (ev):

     7.8217   8.0977  12.1698  12.1748  13.0703  13.1922  13.3358  13.3492
    14.2595  14.4236  14.4428  15.7458  34.1130  34.5976  35.7762  36.2006

          k =-0.0625 0.3125 0.0625 (   152 PWs)   bands (ev):

     7.8217   8.0977  12.1698  12.1748  13.0703  13.1922  13.3358  13.3492
    14.2595  14.4236  14.4428  15.7458  34.1129  34.5976  35.7762  36.2006

          k =-0.0625-0.3125-0.0625 (   152 PWs)   bands (ev):

     7.8217   8.0977  12.1698  12.1748  13.0703  13.1922  13.3358  13.3492
    14.2595  14.4236  14.4428  15.7458  34.1129  34.5976  35.7762  36.2006

          k = 0.0625 0.0625-0.4375 (   156 PWs)   bands (ev):

     9.2170   9.5968  11.8745  12.3824  12.8120  13.0631  13.5377  13.6897
    14.0543  14.7941  14.9741  16.1778  32.0176  32.5959  33.0368  33.5000

          k = 0.4375-0.0625 0.0625 (   156 PWs)   bands (ev):

     9.2170   9.5968  11.8745  12.3824  12.8120  13.0631  13.5377  13.6897
    14.0543  14.7941  14.9741  16.1778  32.0176  32.5959  33.0368  33.5000

          k = 0.4375 0.0625-0.0625 (   156 PWs)   bands (ev):

     9.2170   9.5968  11.8745  12.3824  12.8120  13.0631  13.5377  13.6897
    14.0543  14.7941  14.9741  16.1778  32.0176  32.5959  33.0368  33.5000

          k =-0.0625 0.4375 0.0625 (   156 PWs)   bands (ev):

     9.2170   9.5968  11.8745  12.3824  12.8120  13.0631  13.5377  13.6897
    14.0543  14.7941  14.9741  16.1778  32.0176  32.5959  33.0368  33.5000

          k =-0.0625-0.4375-0.0625 (   156 PWs)   bands (ev):

     9.2170   9.5968  11.8745  12.3824  12.8120  13.0631  13.5377  13.6897
    14.0543  14.7941  14.9741  16.1778  32.0176  32.5959  33.0368  33.5000

          k = 0.0625 0.0625-0.5625 (   148 PWs)   bands (ev):

    10.1574  10.7922  11.1709  12.3178  12.7382  13.1208  13.9138  14.1901
    14.3292  15.5110  16.1737  17.2484  29.9417  30.4398  30.5391  30.9216

          k = 0.5625-0.0625 0.0625 (   148 PWs)   bands (ev):

    10.1574  10.7922  11.1709  12.3178  12.7382  13.1208  13.9138  14.1901
    14.3292  15.5110  16.1737  17.2483  29.9417  30.4398  30.5391  30.9216

          k = 0.5625 0.0625-0.0625 (   148 PWs)   bands (ev):

    10.1574  10.7922  11.1709  12.3178  12.7382  13.1208  13.9138  14.1901
    14.3292  15.5110  16.1737  17.2483  29.9417  30.4398  30.5391  30.9216

          k =-0.0625 0.5625 0.0625 (   148 PWs)   bands (ev):

    10.1574  10.7922  11.1709  12.3178  12.7382  13.1208  13.9138  14.1901
    14.3292  15.5110  16.1737  17.2483  29.9417  30.4398  30.5391  30.9216

          k =-0.0625-0.5625-0.0625 (   148 PWs)   bands (ev):

    10.1574  10.7922  11.1709  12.3178  12.7382  13.1208  13.9138  14.1901
    14.3292  15.5110  16.1737  17.2483  29.9417  30.4398  30.5391  30.9216

          k = 0.0625 0.0625-0.6875 (   146 PWs)   bands (ev):

    10.2587  10.4556  11.1468  11.5427  13.2763  13.7329  14.4771  14.6509
    14.9687  16.0007  18.6645  19.4164  27.7948  28.0894  28.3348  28.5482

          k = 0.6875-0.0625 0.0625 (   146 PWs)   bands (ev):

    10.2587  10.4556  11.1468  11.5427  13.2763  13.7329  14.4771  14.6509
    14.9687  16.0007  18.6645  19.4164  27.7948  28.0894  28.3348  28.5482

          k = 0.6875 0.0625-0.0625 (   146 PWs)   bands (ev):

    10.2587  10.4556  11.1468  11.5427  13.2763  13.7329  14.4771  14.6509
    14.9687  16.0007  18.6645  19.4164  27.7948  28.0894  28.3348  28.5482

          k =-0.0625 0.6875 0.0625 (   146 PWs)   bands (ev):

    10.2587  10.4556  11.1468  11.5427  13.2763  13.7329  14.4771  14.6509
    14.9687  16.0007  18.6646  19.4164  27.7948  28.0894  28.3348  28.5482

          k =-0.0625-0.6875-0.0625 (   146 PWs)   bands (ev):

    10.2587  10.4556  11.1468  11.5427  13.2763  13.7329  14.4771  14.6509
    14.9687  16.0007  18.6646  19.4164  27.7948  28.0894  28.3348  28.5482

          k = 0.0625 0.0625-0.8125 (   144 PWs)   bands (ev):

     9.9075   9.9097  10.9039  10.9502  13.9973  14.4609  14.9653  15.2526
    15.7625  16.3395  21.8272  22.3669  25.8985  26.1774  26.3468  26.5740

          k = 0.8125-0.0625 0.0625 (   144 PWs)   bands (ev):

     9.9075   9.9097  10.9039  10.9502  13.9973  14.4609  14.9653  15.2526
    15.7625  16.3395  21.8272  22.3669  25.8985  26.1774  26.3468  26.5740

          k = 0.8125 0.0625-0.0625 (   144 PWs)   bands (ev):

     9.9075   9.9097  10.9039  10.9502  13.9973  14.4609  14.9653  15.2526
    15.7625  16.3395  21.8272  22.3669  25.8985  26.1774  26.3468  26.5740

          k =-0.0625 0.8125 0.0625 (   144 PWs)   bands (ev):

     9.9075   9.9097  10.9039  10.9502  13.9973  14.4609  14.9653  15.2526
    15.7625  16.3395  21.8272  22.3669  25.8985  26.1775  26.3468  26.5740

          k =-0.0625-0.8125-0.0625 (   144 PWs)   bands (ev):

     9.9075   9.9097  10.9039  10.9502  13.9973  14.4609  14.9653  15.2526
    15.7625  16.3395  21.8272  22.3669  25.8985  26.1774  26.3468  26.5740

          k = 0.0625 0.0625-0.9375 (   143 PWs)   bands (ev):

     9.6135   9.6135  10.6335  10.6335  14.6562  15.0050  15.0050  15.9865
    16.3800  16.3800  24.7320  24.7320  25.0941  25.0941  25.1259  25.4524

          k = 0.1875 0.0625-0.1875 (   151 PWs)   bands (ev):

     7.2340   7.4960  11.8720  12.0996  13.0364  13.2482  13.2564  13.6597
    13.9227  14.4993  15.0929  15.3995  34.2314  34.6952  36.9587  37.2924

          k =-0.1875-0.0625-0.1875 (   151 PWs)   bands (ev):

     7.2340   7.4960  11.8720  12.0996  13.0364  13.2482  13.2564  13.6597
    13.9227  14.4993  15.0929  15.3995  34.2314  34.6952  36.9587  37.2924

          k = 0.1875-0.1875 0.0625 (   151 PWs)   bands (ev):

     7.2340   7.4960  11.8720  12.0996  13.0364  13.2482  13.2564  13.6597
    13.9227  14.4993  15.0929  15.3995  34.2314  34.6952  36.9587  37.2924

          k = 0.1875 0.1875-0.0625 (   151 PWs)   bands (ev):

     7.2340   7.4960  11.8720  12.0996  13.0364  13.2482  13.2564  13.6597
    13.9227  14.4993  15.0929  15.3995  34.2314  34.6952  36.9587  37.2924

          k =-0.0625 0.1875 0.1875 (   151 PWs)   bands (ev):

     7.2340   7.4960  11.8720  12.0996  13.0364  13.2482  13.2564  13.6597
    13.9227  14.4993  15.0929  15.3995  34.2314  34.6952  36.9587  37.2924

          k = 0.1875 0.0625-0.3125 (   152 PWs)   bands (ev):

     8.3002   8.6126  11.7208  12.0348  12.8648  13.1318  13.4607  13.8070
    14.1460  14.8486  15.0879  15.6248  31.4685  32.0118  35.1676  35.5461

          k =-0.1875-0.0625-0.3125 (   152 PWs)   bands (ev):

     8.3002   8.6126  11.7208  12.0348  12.8648  13.1318  13.4607  13.8070
    14.1460  14.8486  15.0879  15.6248  31.4685  32.0118  35.1676  35.5461

          k = 0.3125-0.1875 0.0625 (   152 PWs)   bands (ev):

     8.3002   8.6126  11.7208  12.0348  12.8648  13.1318  13.4607  13.8070
    14.1460  14.8486  15.0879  15.6248  31.4685  32.0118  35.1676  35.5461

          k = 0.3125 0.1875-0.0625 (   152 PWs)   bands (ev):

     8.3002   8.6126  11.7208  12.0348  12.8648  13.1318  13.4607  13.8070
    14.1460  14.8486  15.0879  15.6248  31.4685  32.0118  35.1676  35.5461

          k =-0.0625 0.3125 0.1875 (   152 PWs)   bands (ev):

     8.3002   8.6126  11.7208  12.0348  12.8648  13.1318  13.4607  13.8070
    14.1460  14.8486  15.0879  15.6248  31.4685  32.0118  35.1676  35.5461

          k =-0.0625-0.3125-0.1875 (   152 PWs)   bands (ev):

     8.3002   8.6126  11.7208  12.0348  12.8648  13.1318  13.4607  13.8070
    14.1460  14.8486  15.0879  15.6248  31.4685  32.0118  35.1676  35.5461

          k = 0.1875 0.3125 0.0625 (   152 PWs)   bands (ev):

     8.3002   8.6126  11.7208  12.0348  12.8648  13.1318  13.4607  13.8070
    14.1460  14.8486  15.0879  15.6248  31.4685  32.0118  35.1676  35.5461

          k = 0.1875-0.3125-0.0625 (   152 PWs)   bands (ev):

     8.3002   8.6126  11.7208  12.0348  12.8648  13.1318  13.4607  13.8070
    14.1460  14.8486  15.0879  15.6248  31.4685  32.0118  35.1676  35.5461

          k = 0.3125 0.0625 0.1875 (   152 PWs)   bands (ev):

     8.3002   8.6126  11.7208  12.0348  12.8648  13.1318  13.4607  13.8070
    14.1460  14.8486  15.0879  15.6248  31.4685  32.0118  35.1676  35.5461

          k = 0.3125-0.0625-0.1875 (   152 PWs)   bands (ev):

     8.3002   8.6126  11.7208  12.0348  12.8648  13.1318  13.4607  13.8070
    14.1460  14.8486  15.0879  15.6248  31.4685  32.0118  35.1676  35.5461

          k =-0.0625-0.1875 0.3125 (   152 PWs)   bands (ev):

     8.3002   8.6126  11.7208  12.0348  12.8648  13.1318  13.4607  13.8070
    14.1460  14.8486  15.0879  15.6248  31.4685  32.0118  35.1676  35.5461

          k = 0.1875 0.0625-0.4375 (   153 PWs)   bands (ev):

     9.4219   9.8942  11.6834  11.9894  12.7951  13.0634  13.3323  14.2462
    14.6412  14.8732  15.6022  16.1888  28.9406  29.5445  32.8941  33.3460

          k =-0.1875-0.0625-0.4375 (   153 PWs)   bands (ev):

     9.4219   9.8942  11.6834  11.9894  12.7951  13.0634  13.3323  14.2462
    14.6412  14.8732  15.6022  16.1888  28.9406  29.5445  32.8941  33.3460

          k = 0.4375-0.1875 0.0625 (   153 PWs)   bands (ev):

     9.4219   9.8942  11.6834  11.9894  12.7951  13.0634  13.3323  14.2462
    14.6412  14.8732  15.6022  16.1888  28.9406  29.5445  32.8941  33.3460

          k = 0.4375 0.1875-0.0625 (   153 PWs)   bands (ev):

     9.4219   9.8942  11.6834  11.9895  12.7951  13.0634  13.3323  14.2462
    14.6412  14.8732  15.6022  16.1888  28.9406  29.5445  32.8941  33.3460

          k =-0.0625 0.4375 0.1875 (   153 PWs)   bands (ev):

     9.4219   9.8942  11.6834  11.9894  12.7951  13.0634  13.3323  14.2462
    14.6412  14.8732  15.6022  16.1888  28.9406  29.5445  32.8941  33.3460

          k =-0.0625-0.4375-0.1875 (   153 PWs)   bands (ev):

     9.4219   9.8942  11.6834  11.9894  12.7951  13.0634  13.3323  14.2462
    14.6412  14.8732  15.6022  16.1888  28.9406  29.5445  32.8941  33.3460

          k = 0.1875 0.4375 0.0625 (   153 PWs)   bands (ev):

     9.4219   9.8942  11.6834  11.9894  12.7951  13.0634  13.3323  14.2462
    14.6412  14.8732  15.6022  16.1888  28.9406  29.5445  32.8941  33.3460

          k = 0.1875-0.4375-0.0625 (   153 PWs)   bands (ev):

     9.4219   9.8942  11.6834  11.9894  12.7951  13.0634  13.3323  14.2462
    14.6412  14.8732  15.6022  16.1888  28.9406  29.5445  32.8941  33.3460

          k = 0.4375 0.0625 0.1875 (   153 PWs)   bands (ev):

     9.4219   9.8942  11.6834  11.9894  12.7951  13.0634  13.3323  14.2462
    14.6412  14.8732  15.6022  16.1888  28.9406  29.5445  32.8941  33.3460

          k = 0.4375-0.0625-0.1875 (   153 PWs)   bands (ev):

     9.4219   9.8942  11.6834  11.9894  12.7951  13.0634  13.3323  14.2462
    14.6412  14.8732  15.6022  16.1888  28.9406  29.5445  32.8941  33.3460

          k =-0.0625-0.1875 0.4375 (   153 PWs)   bands (ev):

     9.4219   9.8942  11.6834  11.9895  12.7951  13.0634  13.3323  14.2462
    14.6412  14.8732  15.6022  16.1888  28.9406  29.5445  32.8941  33.3460

     the Fermi energy is    14.3662 ev

!    total energy              =     -55.69029481 Ry
     Harris-Foulkes estimate   =     -55.69029740 Ry
     estimated scf accuracy    <          9.1E-09 Ry

     The total energy is the sum of the following terms:

     one-electron contribution =       8.87154507 Ry
     hartree contribution      =       6.00689162 Ry
     xc contribution           =     -25.92671027 Ry
     ewald contribution        =     -44.64461207 Ry
     smearing contrib. (-TS)   =       0.00259083 Ry

     total magnetization       =     1.66     0.00     0.14 Bohr mag/cell
     absolute magnetization    =     1.66 Bohr mag/cell
     lambda                    =       1.00 Ry

     convergence has been achieved in  14 iterations

     Writing output data file fe.save
 
     init_run     :      0.39s CPU      0.41s WALL (       1 calls)
     electrons    :     10.10s CPU     10.43s WALL (       1 calls)

     Called by init_run:
     wfcinit      :      0.19s CPU      0.19s WALL (       1 calls)
     potinit      :      0.01s CPU      0.01s WALL (       1 calls)

     Called by electrons:
     c_bands      :      8.31s CPU      8.58s WALL (      14 calls)
     sum_band     :      1.67s CPU      1.72s WALL (      14 calls)
     v_of_rho     :      0.03s CPU      0.03s WALL (      15 calls)
     newd         :      0.06s CPU      0.06s WALL (      15 calls)
     mix_rho      :      0.02s CPU      0.02s WALL (      14 calls)

     Called by c_bands:
     init_us_2    :      0.08s CPU      0.07s WALL (    2030 calls)
     cegterg      :      7.88s CPU      8.17s WALL (     980 calls)

     Called by sum_band:
     sum_band:bec :      0.02s CPU      0.03s WALL (     980 calls)
     addusdens    :      0.24s CPU      0.24s WALL (      14 calls)

     Called by *egterg:
     h_psi        :      5.48s CPU      5.64s WALL (    3305 calls)
     s_psi        :      0.14s CPU      0.15s WALL (    3305 calls)
     g_psi        :      0.04s CPU      0.05s WALL (    2255 calls)
     cdiaghg      :      1.75s CPU      1.78s WALL (    3235 calls)

     Called by h_psi:
     add_vuspsi   :      0.17s CPU      0.17s WALL (    3305 calls)

     General routines
     calbec       :      0.22s CPU      0.19s WALL (    4285 calls)
     fft          :      0.05s CPU      0.05s WALL (     473 calls)
     ffts         :      0.00s CPU      0.00s WALL (     116 calls)
     fftw         :      4.73s CPU      4.95s WALL (  183684 calls)
     interpolate  :      0.02s CPU      0.02s WALL (     116 calls)
 
     Parallel routines
     fft_scatter  :      1.16s CPU      1.35s WALL (  184273 calls)
 
     PWSCF        :    10.74s CPU        11.10s WALL

 
   This run was terminated on:  15:35:28  21Jul2016            

=------------------------------------------------------------------------------=
   JOB DONE.
=------------------------------------------------------------------------------=
