
     Program PWSCF v.5.4.0 (svn rev. 12828M) starts on 23Aug2016 at 14:33: 9 

     This program is part of the open-source Quantum ESPRESSO suite
     for quantum simulation of materials; please cite
         "P. Giannozzi et al., J. Phys.:Condens. Matter 21 395502 (2009);
          URL http://www.quantum-espresso.org", 
     in publications or presentations arising from this work. More details at
     http://www.quantum-espresso.org/quote
 
           HOST :    x86_64-pc-linux-gnu
           ARCH :    x86_64
             CC :    icc
            CPP :    cpp
            F90 :    ifort
            F77 :    ifort
         DFLAGS :    -D__INTEL -D__FFTW -D__MPI -D__PARA -D__HDF5
      BLAS LIBS :    -lmkl_intel_lp64  -lmkl_sequential -lmkl_core
    LAPACK LIBS :    
       FFT LIBS :    
      MASS LIBS :    

     Parallel version (MPI), running on     2 processors
     R & G space division:  proc/nbgrp/npool/nimage =       2
     Waiting for input...
     Reading input from standard input
     Message from routine read_cards :
     DEPRECATED: no units specified in ATOMIC_POSITIONS card
     Message from routine read_cards :
     ATOMIC_POSITIONS: units set to alat

     Current dimensions of program PWSCF are:
     Max number of different atomic species (ntypx) = 10
     Max number of k-points (npk) =  40000
     Max angular momentum in pseudopotentials (lmaxx) =  3
               file Fe.pz-nd-rrkjus.UPF: wavefunction(s)  4S renormalized

     Subspace diagonalization in iterative solution of the eigenvalue problem:
     a serial algorithm will be used

 
     Parallelization info
     --------------------
     sticks:   dense  smooth     PW     G-vecs:    dense   smooth      PW
     Min         153      77     27                 1683      602     124
     Max         154      78     28                 1684      603     125
     Sum         307     155     55                 3367     1205     249
 


     bravais-lattice index     =            3
     lattice parameter (alat)  =       5.2170  a.u.
     unit-cell volume          =      70.9958 (a.u.)^3
     number of atoms/cell      =            1
     number of atomic types    =            1
     number of electrons       =         8.00
     number of Kohn-Sham states=           16
     kinetic-energy cutoff     =      25.0000  Ry
     charge density cutoff     =     200.0000  Ry
     convergence threshold     =      1.0E-09
     mixing beta               =       0.3000
     number of iterations used =            8  plain     mixing
     Exchange-correlation      =  SLA  PZ   NOGX NOGC ( 1  1  0  0 0 0)
     Noncollinear calculation without spin-orbit


     celldm(1)=   5.217000  celldm(2)=   0.000000  celldm(3)=   0.000000
     celldm(4)=   0.000000  celldm(5)=   0.000000  celldm(6)=   0.000000

     crystal axes: (cart. coord. in units of alat)
               a(1) = (   0.500000   0.500000   0.500000 )  
               a(2) = (  -0.500000   0.500000   0.500000 )  
               a(3) = (  -0.500000  -0.500000   0.500000 )  

     reciprocal axes: (cart. coord. in units 2 pi/alat)
               b(1) = (  1.000000  0.000000  1.000000 )  
               b(2) = ( -1.000000  1.000000  0.000000 )  
               b(3) = (  0.000000 -1.000000  1.000000 )  


     PseudoPot. # 1 for Fe read from file:
     /home/nvarini/espresso_hdf5/espresso/pseudo/Fe.pz-nd-rrkjus.UPF
     MD5 check sum: 2e083728ad07023434bc1cc596eb954d
     Pseudo is Ultrasoft + core correction, Zval =  8.0
     Generated by new atomic code, or converted to UPF format
     Using radial grid of  957 points,  6 beta functions with: 
                l(1) =   0
                l(2) =   0
                l(3) =   1
                l(4) =   1
                l(5) =   2
                l(6) =   2
     Q(r) pseudized with 0 coefficients 


     atomic species   valence    mass     pseudopotential
        Fe             8.00    55.84700     Fe( 1.00)

      2 Sym. Ops., with inversion, found



   Cartesian axes

     site n.     atom                  positions (alat units)
         1           Fe  tau(   1) = (   0.0000000   0.0000000   0.0000000  )

     number of k points=    32  Marzari-Vanderbilt smearing, width (Ry)=  0.0500
                       cart. coord. in units 2pi/alat
        k(    1) = (   0.0000000   0.0000000   0.2500000), wk =   0.0312500
        k(    2) = (   0.0000000  -0.2500000   0.5000000), wk =   0.0312500
        k(    3) = (  -0.2500000   0.2500000   0.2500000), wk =   0.0312500
        k(    4) = (  -0.2500000   0.7500000  -0.2500000), wk =   0.0312500
        k(    5) = (   0.5000000  -0.5000000   0.2500000), wk =   0.0312500
        k(    6) = (   0.0000000   0.0000000   0.7500000), wk =   0.0312500
        k(    7) = (   0.2500000   0.0000000   0.0000000), wk =   0.0312500
        k(    8) = (   0.0000000   0.2500000   0.0000000), wk =   0.0312500
        k(    9) = (   0.0000000  -0.2500000  -0.5000000), wk =   0.0312500
        k(   10) = (  -0.2500000   0.0000000  -0.5000000), wk =   0.0312500
        k(   11) = (   0.2500000   0.0000000  -0.5000000), wk =   0.0312500
        k(   12) = (   0.5000000   0.2500000   0.0000000), wk =   0.0312500
        k(   13) = (  -0.5000000   0.2500000   0.0000000), wk =   0.0312500
        k(   14) = (   0.0000000   0.5000000  -0.2500000), wk =   0.0312500
        k(   15) = (   0.0000000   0.5000000   0.2500000), wk =   0.0312500
        k(   16) = (  -0.2500000   0.5000000   0.0000000), wk =   0.0312500
        k(   17) = (   0.2500000   0.5000000   0.0000000), wk =   0.0312500
        k(   18) = (   0.5000000   0.0000000  -0.2500000), wk =   0.0312500
        k(   19) = (   0.5000000   0.0000000   0.2500000), wk =   0.0312500
        k(   20) = (   0.2500000   0.2500000  -0.2500000), wk =   0.0312500
        k(   21) = (  -0.2500000  -0.2500000  -0.2500000), wk =   0.0312500
        k(   22) = (  -0.2500000   0.2500000  -0.2500000), wk =   0.0312500
        k(   23) = (   0.2500000   0.7500000   0.2500000), wk =   0.0312500
        k(   24) = (  -0.2500000  -0.7500000   0.2500000), wk =   0.0312500
        k(   25) = (   0.7500000  -0.2500000   0.2500000), wk =   0.0312500
        k(   26) = (  -0.5000000  -0.5000000  -0.2500000), wk =   0.0312500
        k(   27) = (   0.2500000   0.5000000   0.5000000), wk =   0.0312500
        k(   28) = (  -0.2500000   0.5000000  -0.5000000), wk =   0.0312500
        k(   29) = (  -0.5000000   0.2500000  -0.5000000), wk =   0.0312500
        k(   30) = (  -0.5000000  -0.2500000   0.5000000), wk =   0.0312500
        k(   31) = (   0.7500000   0.0000000   0.0000000), wk =   0.0312500
        k(   32) = (   0.0000000   0.7500000   0.0000000), wk =   0.0312500

     Dense  grid:     3367 G-vectors     FFT dimensions: (  24,  24,  24)

     Smooth grid:     1205 G-vectors     FFT dimensions: (  15,  15,  15)

     Estimated max dynamical RAM per process >       5.13Mb

     Estimated total allocated dynamical RAM >      10.26Mb
     Generating pointlists ...
     new r_m :   0.3572 (alat units)  1.8637 (a.u.) for type    1

     Check: negative/imaginary core charge=   -0.000013    0.000000

     Initial potential from superposition of free atoms

     starting charge    7.99953, renormalised to    8.00000
      External magnetic field:      -1.40219     -1.85888     -2.32843

 ==============================================================================
     atom number    1 relative position :    0.0000   0.0000   0.0000
     charge :     6.664635
     magnetization :          1.418059    1.881828    2.356304
     magnetization/charge:    0.212774    0.282360    0.353553
     polar coord.: r, theta, phi [deg] :     3.332318   45.000000   53.000000

 ==============================================================================
     Starting wfc are   12 randomized atomic wfcs +    4 random wfc

     total cpu time spent up to now is        0.3 secs

     per-process dynamical memory:     6.7 Mb

     Self-consistent Calculation

     iteration #  1     ecut=    25.00 Ry     beta=0.30
     Davidson diagonalization with overlap
     c_bands:  1 eigenvalues not converged
     c_bands:  1 eigenvalues not converged
     ethr =  1.00E-02,  avg # of iterations = 12.9
      External magnetic field:       0.13053      0.17368      0.21699

 ==============================================================================
     atom number    1 relative position :    0.0000   0.0000   0.0000
     charge :     6.446207
     magnetization :          0.234175    0.311832    0.390235
     magnetization/charge:    0.036328    0.048374    0.060537
     polar coord.: r, theta, phi [deg] :     0.551689   44.980557   53.094660

 ==============================================================================

     total cpu time spent up to now is        1.4 secs

     total energy              =     -49.81688665 Ry
     Harris-Foulkes estimate   =     -91.11086332 Ry
     estimated scf accuracy    <       2.17506157 Ry

     total magnetization       =    -3.41    -4.52    -5.66 Bohr mag/cell
     absolute magnetization    =     8.00 Bohr mag/cell
     Magnetic field            =   0.1305297   0.1736776   0.2169914 Ry
     lambda                    =       0.50 Ry

     iteration #  2     ecut=    25.00 Ry     beta=0.30
     Davidson diagonalization with overlap
     ethr =  1.00E-02,  avg # of iterations =  6.3
      External magnetic field:      -0.20581     -0.27367     -0.34191

 ==============================================================================
     atom number    1 relative position :    0.0000   0.0000   0.0000
     charge :     6.429148
     magnetization :          0.514267    0.684484    0.855712
     magnetization/charge:    0.079990    0.106466    0.133099
     polar coord.: r, theta, phi [deg] :     1.210467   45.014572   53.081694

 ==============================================================================

     total cpu time spent up to now is        2.2 secs

     total energy              =     -54.06991372 Ry
     Harris-Foulkes estimate   =     -56.28708757 Ry
     estimated scf accuracy    <       0.19949181 Ry

     total magnetization       =     1.60     2.13     2.66 Bohr mag/cell
     absolute magnetization    =     3.77 Bohr mag/cell
     Magnetic field            =  -0.2058144  -0.2736719  -0.3419055 Ry
     lambda                    =       0.50 Ry

     iteration #  3     ecut=    25.00 Ry     beta=0.30
     Davidson diagonalization with overlap
     ethr =  2.49E-03,  avg # of iterations =  4.0
      External magnetic field:       0.07361      0.09798      0.12242

 ==============================================================================
     atom number    1 relative position :    0.0000   0.0000   0.0000
     charge :     6.407113
     magnetization :          0.264559    0.352405    0.440765
     magnetization/charge:    0.041291    0.055002    0.068793
     polar coord.: r, theta, phi [deg] :     0.623261   44.993096   53.103534

 ==============================================================================

     total cpu time spent up to now is        2.6 secs

     total energy              =     -53.83736100 Ry
     Harris-Foulkes estimate   =     -57.46788838 Ry
     estimated scf accuracy    <       0.65780216 Ry

     total magnetization       =    -1.99    -2.64    -3.30 Bohr mag/cell
     absolute magnetization    =     4.67 Bohr mag/cell
     Magnetic field            =   0.0736149   0.0979802   0.1224231 Ry
     lambda                    =       0.50 Ry

     iteration #  4     ecut=    25.00 Ry     beta=0.30
     Davidson diagonalization with overlap
     ethr =  2.49E-03,  avg # of iterations =  1.2
      External magnetic field:      -0.00136     -0.00181     -0.00228

 ==============================================================================
     atom number    1 relative position :    0.0000   0.0000   0.0000
     charge :     6.412632
     magnetization :          0.330394    0.440071    0.550281
     magnetization/charge:    0.051522    0.068626    0.085812
     polar coord.: r, theta, phi [deg] :     0.778224   45.000624   53.101728

 ==============================================================================

     total cpu time spent up to now is        2.9 secs

     total energy              =     -55.41847010 Ry
     Harris-Foulkes estimate   =     -55.87416130 Ry
     estimated scf accuracy    <       0.14280287 Ry

     total magnetization       =     1.36     1.81     2.26 Bohr mag/cell
     absolute magnetization    =     3.19 Bohr mag/cell
     Magnetic field            =  -0.0013556  -0.0018100  -0.0022768 Ry
     lambda                    =       0.50 Ry

     iteration #  5     ecut=    25.00 Ry     beta=0.30
     Davidson diagonalization with overlap
     ethr =  1.79E-03,  avg # of iterations =  1.0
      External magnetic field:       0.00020      0.00027      0.00033

 ==============================================================================
     atom number    1 relative position :    0.0000   0.0000   0.0000
     charge :     6.411993
     magnetization :          0.328838    0.437997    0.547681
     magnetization/charge:    0.051285    0.068309    0.085415
     polar coord.: r, theta, phi [deg] :     0.774551   45.001021   53.101634

 ==============================================================================

     total cpu time spent up to now is        3.2 secs

     total energy              =     -55.54617234 Ry
     Harris-Foulkes estimate   =     -55.54521270 Ry
     estimated scf accuracy    <       0.00302222 Ry

     total magnetization       =     0.42     0.56     0.69 Bohr mag/cell
     absolute magnetization    =     1.02 Bohr mag/cell
     Magnetic field            =   0.0001994   0.0002687   0.0003251 Ry
     lambda                    =       0.50 Ry

     iteration #  6     ecut=    25.00 Ry     beta=0.30
     Davidson diagonalization with overlap
     ethr =  3.78E-05,  avg # of iterations =  4.5
      External magnetic field:      -0.03665     -0.04791     -0.05948

 ==============================================================================
     atom number    1 relative position :    0.0000   0.0000   0.0000
     charge :     6.417714
     magnetization :          0.353369    0.469724    0.586914
     magnetization/charge:    0.055062    0.073192    0.091452
     polar coord.: r, theta, phi [deg] :     0.830650   45.043269   53.046157

 ==============================================================================

     total cpu time spent up to now is        3.6 secs

     total energy              =     -55.52124962 Ry
     Harris-Foulkes estimate   =     -55.54671497 Ry
     estimated scf accuracy    <       0.00472485 Ry

     total magnetization       =     0.47     0.62     0.78 Bohr mag/cell
     absolute magnetization    =     1.13 Bohr mag/cell
     Magnetic field            =  -0.0366510  -0.0479064  -0.0594837 Ry
     lambda                    =       0.50 Ry

     iteration #  7     ecut=    25.00 Ry     beta=0.30
     Davidson diagonalization with overlap
     ethr =  3.78E-05,  avg # of iterations =  1.4
      External magnetic field:      -0.03778     -0.04982     -0.06205

 ==============================================================================
     atom number    1 relative position :    0.0000   0.0000   0.0000
     charge :     6.417892
     magnetization :          0.352789    0.469357    0.586632
     magnetization/charge:    0.054970    0.073133    0.091406
     polar coord.: r, theta, phi [deg] :     0.829996   45.025727   53.069946

 ==============================================================================

     total cpu time spent up to now is        3.9 secs

     total energy              =     -55.65465221 Ry
     Harris-Foulkes estimate   =     -55.64611582 Ry
     estimated scf accuracy    <       0.15286339 Ry

     total magnetization       =    -0.72    -0.93    -1.16 Bohr mag/cell
     absolute magnetization    =     1.65 Bohr mag/cell
     Magnetic field            =  -0.0377819  -0.0498164  -0.0620526 Ry
     lambda                    =       0.50 Ry

     iteration #  8     ecut=    25.00 Ry     beta=0.30
     Davidson diagonalization with overlap
     ethr =  3.78E-05,  avg # of iterations =  1.8
      External magnetic field:      -0.03988     -0.05061     -0.06215

 ==============================================================================
     atom number    1 relative position :    0.0000   0.0000   0.0000
     charge :     6.417985
     magnetization :          0.353650    0.468622    0.584861
     magnetization/charge:    0.055103    0.073017    0.091128
     polar coord.: r, theta, phi [deg] :     0.828696   45.108954   52.959637

 ==============================================================================

     total cpu time spent up to now is        4.2 secs

     total energy              =     -55.65844831 Ry
     Harris-Foulkes estimate   =     -55.65475157 Ry
     estimated scf accuracy    <       0.15942738 Ry

     total magnetization       =    -0.73    -0.96    -1.20 Bohr mag/cell
     absolute magnetization    =     1.70 Bohr mag/cell
     Magnetic field            =  -0.0398762  -0.0506085  -0.0621455 Ry
     lambda                    =       0.50 Ry

     iteration #  9     ecut=    25.00 Ry     beta=0.30
     Davidson diagonalization with overlap
     ethr =  3.78E-05,  avg # of iterations =  2.0
      External magnetic field:      -0.07666     -0.10132     -0.12630

 ==============================================================================
     atom number    1 relative position :    0.0000   0.0000   0.0000
     charge :     6.426596
     magnetization :          0.335467    0.446363    0.557499
     magnetization/charge:    0.052200    0.069456    0.086749
     polar coord.: r, theta, phi [deg] :     0.789039   45.044767   53.073094

 ==============================================================================

     total cpu time spent up to now is        4.5 secs

     total energy              =     -55.90563617 Ry
     Harris-Foulkes estimate   =     -55.65850805 Ry
     estimated scf accuracy    <       0.16210299 Ry

     total magnetization       =    -0.79    -0.98    -1.19 Bohr mag/cell
     absolute magnetization    =     1.73 Bohr mag/cell
     Magnetic field            =  -0.0766595  -0.1013228  -0.1263036 Ry
     lambda                    =       0.50 Ry

     iteration # 10     ecut=    25.00 Ry     beta=0.30
     Davidson diagonalization with overlap
     ethr =  3.78E-05,  avg # of iterations =  2.2
      External magnetic field:       0.06039      0.07977      0.09941

 ==============================================================================
     atom number    1 relative position :    0.0000   0.0000   0.0000
     charge :     6.440925
     magnetization :          0.231291    0.308832    0.386331
     magnetization/charge:    0.035910    0.047948    0.059981
     polar coord.: r, theta, phi [deg] :     0.546008   44.963576   53.169675

 ==============================================================================

     total cpu time spent up to now is        4.9 secs

     total energy              =     -54.71549344 Ry
     Harris-Foulkes estimate   =     -55.98081507 Ry
     estimated scf accuracy    <       0.36287539 Ry

     total magnetization       =    -1.42    -1.87    -2.33 Bohr mag/cell
     absolute magnetization    =     3.31 Bohr mag/cell
     Magnetic field            =   0.0603916   0.0797743   0.0994126 Ry
     lambda                    =       0.50 Ry

     iteration # 11     ecut=    25.00 Ry     beta=0.30
     Davidson diagonalization with overlap
     ethr =  3.78E-05,  avg # of iterations =  1.8
      External magnetic field:       0.01311      0.01770      0.02222

 ==============================================================================
     atom number    1 relative position :    0.0000   0.0000   0.0000
     charge :     6.434611
     magnetization :          0.257945    0.343709    0.429498
     magnetization/charge:    0.040087    0.053416    0.066748
     polar coord.: r, theta, phi [deg] :     0.607569   45.015789   53.112697

 ==============================================================================

     total cpu time spent up to now is        5.2 secs

     total energy              =     -55.47981580 Ry
     Harris-Foulkes estimate   =     -55.77647101 Ry
     estimated scf accuracy    <       0.15784475 Ry

     total magnetization       =     1.41     1.86     2.32 Bohr mag/cell
     absolute magnetization    =     3.29 Bohr mag/cell
     Magnetic field            =   0.0131141   0.0177007   0.0222202 Ry
     lambda                    =       0.50 Ry

     iteration # 12     ecut=    25.00 Ry     beta=0.30
     Davidson diagonalization with overlap
     ethr =  3.78E-05,  avg # of iterations =  1.3
      External magnetic field:       0.03033      0.04012      0.05008

 ==============================================================================
     atom number    1 relative position :    0.0000   0.0000   0.0000
     charge :     6.427874
     magnetization :          0.241948    0.322716    0.403371
     magnetization/charge:    0.037640    0.050206    0.062753
     polar coord.: r, theta, phi [deg] :     0.570432   44.997894   53.140204

 ==============================================================================

     total cpu time spent up to now is        5.5 secs

     total energy              =     -55.60380048 Ry
     Harris-Foulkes estimate   =     -55.56496724 Ry
     estimated scf accuracy    <       0.03597964 Ry

     total magnetization       =     0.70     0.94     1.17 Bohr mag/cell
     absolute magnetization    =     1.65 Bohr mag/cell
     Magnetic field            =   0.0303307   0.0401159   0.0500775 Ry
     lambda                    =       0.50 Ry

     iteration # 13     ecut=    25.00 Ry     beta=0.30
     Davidson diagonalization with overlap
     ethr =  3.78E-05,  avg # of iterations =  1.7
      External magnetic field:       0.00915      0.01257      0.01560

 ==============================================================================
     atom number    1 relative position :    0.0000   0.0000   0.0000
     charge :     6.428064
     magnetization :          0.272665    0.363010    0.453837
     magnetization/charge:    0.042418    0.056473    0.070602
     polar coord.: r, theta, phi [deg] :     0.641942   45.010765   53.089023

 ==============================================================================

     total cpu time spent up to now is        5.8 secs

     total energy              =     -55.54166870 Ry
     Harris-Foulkes estimate   =     -55.61333077 Ry
     estimated scf accuracy    <       0.06854545 Ry

     total magnetization       =     0.93     1.23     1.53 Bohr mag/cell
     absolute magnetization    =     2.17 Bohr mag/cell
     Magnetic field            =   0.0091532   0.0125749   0.0156006 Ry
     lambda                    =       0.50 Ry

     iteration # 14     ecut=    25.00 Ry     beta=0.30
     Davidson diagonalization with overlap
     ethr =  3.78E-05,  avg # of iterations =  1.3
      External magnetic field:       0.00768      0.01125      0.01313

 ==============================================================================
     atom number    1 relative position :    0.0000   0.0000   0.0000
     charge :     6.427229
     magnetization :          0.277937    0.369454    0.462678
     magnetization/charge:    0.043244    0.057483    0.071987
     polar coord.: r, theta, phi [deg] :     0.654077   44.978217   53.046128

 ==============================================================================

     total cpu time spent up to now is        6.1 secs

     total energy              =     -55.55501052 Ry
     Harris-Foulkes estimate   =     -55.55696789 Ry
     estimated scf accuracy    <       0.02569853 Ry

     total magnetization       =     0.63     0.85     1.06 Bohr mag/cell
     absolute magnetization    =     1.50 Bohr mag/cell
     Magnetic field            =   0.0076827   0.0112495   0.0131260 Ry
     lambda                    =       0.50 Ry

     iteration # 15     ecut=    25.00 Ry     beta=0.30
     Davidson diagonalization with overlap
     ethr =  3.78E-05,  avg # of iterations =  1.0
      External magnetic field:       0.00944      0.01244      0.01611

 ==============================================================================
     atom number    1 relative position :    0.0000   0.0000   0.0000
     charge :     6.427781
     magnetization :          0.271746    0.362276    0.452261
     magnetization/charge:    0.042277    0.056361    0.070360
     polar coord.: r, theta, phi [deg] :     0.640023   45.038460   53.126169

 ==============================================================================

     total cpu time spent up to now is        6.4 secs

     total energy              =     -55.55699378 Ry
     Harris-Foulkes estimate   =     -55.55509036 Ry
     estimated scf accuracy    <       0.02205434 Ry

     total magnetization       =     0.60     0.83     1.01 Bohr mag/cell
     absolute magnetization    =     1.44 Bohr mag/cell
     Magnetic field            =   0.0094395   0.0124439   0.0161079 Ry
     lambda                    =       0.50 Ry

     iteration # 16     ecut=    25.00 Ry     beta=0.30
     Davidson diagonalization with overlap
     ethr =  3.78E-05,  avg # of iterations =  1.0
      External magnetic field:       0.01347      0.01831      0.02264

 ==============================================================================
     atom number    1 relative position :    0.0000   0.0000   0.0000
     charge :     6.429965
     magnetization :          0.268476    0.357417    0.446960
     magnetization/charge:    0.041754    0.055586    0.069512
     polar coord.: r, theta, phi [deg] :     0.632139   45.003831   53.087785

 ==============================================================================

     total cpu time spent up to now is        6.6 secs

     total energy              =     -55.56511166 Ry
     Harris-Foulkes estimate   =     -55.55710358 Ry
     estimated scf accuracy    <       0.02616573 Ry

     total magnetization       =     0.64     0.84     1.07 Bohr mag/cell
     absolute magnetization    =     1.50 Bohr mag/cell
     Magnetic field            =   0.0134682   0.0183079   0.0226411 Ry
     lambda                    =       0.50 Ry

     iteration # 17     ecut=    25.00 Ry     beta=0.30
     Davidson diagonalization with overlap
     ethr =  3.78E-05,  avg # of iterations =  1.0
      External magnetic field:       0.00410      0.00753      0.01015

 ==============================================================================
     atom number    1 relative position :    0.0000   0.0000   0.0000
     charge :     6.429118
     magnetization :          0.298648    0.396014    0.494349
     magnetization/charge:    0.046452    0.061597    0.076892
     polar coord.: r, theta, phi [deg] :     0.700285   45.095672   52.978790

 ==============================================================================

     total cpu time spent up to now is        6.9 secs

     total energy              =     -55.55104760 Ry
     Harris-Foulkes estimate   =     -55.56597283 Ry
     estimated scf accuracy    <       0.03632684 Ry

     total magnetization       =     0.71     0.95     1.19 Bohr mag/cell
     absolute magnetization    =     1.68 Bohr mag/cell
     Magnetic field            =   0.0041035   0.0075261   0.0101512 Ry
     lambda                    =       0.50 Ry

     iteration # 18     ecut=    25.00 Ry     beta=0.30
     Davidson diagonalization with overlap
     ethr =  3.78E-05,  avg # of iterations =  1.0
      External magnetic field:       0.00639      0.00924      0.01163

 ==============================================================================
     atom number    1 relative position :    0.0000   0.0000   0.0000
     charge :     6.429257
     magnetization :          0.293434    0.390339    0.487880
     magnetization/charge:    0.045640    0.060713    0.075884
     polar coord.: r, theta, phi [deg] :     0.690286   45.026540   53.066351

 ==============================================================================

     total cpu time spent up to now is        7.2 secs

     total energy              =     -55.55503254 Ry
     Harris-Foulkes estimate   =     -55.55346371 Ry
     estimated scf accuracy    <       0.01606468 Ry

     total magnetization       =     0.53     0.78     0.99 Bohr mag/cell
     absolute magnetization    =     1.37 Bohr mag/cell
     Magnetic field            =   0.0063866   0.0092401   0.0116289 Ry
     lambda                    =       0.50 Ry

     iteration # 19     ecut=    25.00 Ry     beta=0.30
     Davidson diagonalization with overlap
     ethr =  3.78E-05,  avg # of iterations =  1.0
      External magnetic field:      -0.00753     -0.01170     -0.01370

 ==============================================================================
     atom number    1 relative position :    0.0000   0.0000   0.0000
     charge :     6.405510
     magnetization :          0.349788    0.467672    0.583912
     magnetization/charge:    0.054607    0.073011    0.091158
     polar coord.: r, theta, phi [deg] :     0.825846   45.004873   53.205888

 ==============================================================================

     total cpu time spent up to now is        7.5 secs

     total energy              =     -55.53158246 Ry
     Harris-Foulkes estimate   =     -55.55513537 Ry
     estimated scf accuracy    <       0.01891321 Ry

     total magnetization       =     0.59     0.81     1.02 Bohr mag/cell
     absolute magnetization    =     1.43 Bohr mag/cell
     Magnetic field            =  -0.0075307  -0.0116998  -0.0136983 Ry
     lambda                    =       0.50 Ry

     iteration # 20     ecut=    25.00 Ry     beta=0.30
     Davidson diagonalization with overlap
     ethr =  3.78E-05,  avg # of iterations =  2.1
      External magnetic field:      -0.00432     -0.00571     -0.00739

 ==============================================================================
     atom number    1 relative position :    0.0000   0.0000   0.0000
     charge :     6.409163
     magnetization :          0.322351    0.429630    0.537484
     magnetization/charge:    0.050295    0.067034    0.083862
     polar coord.: r, theta, phi [deg] :     0.759856   44.980313   53.119155

 ==============================================================================

     total cpu time spent up to now is        7.9 secs

     total energy              =     -55.54399411 Ry
     Harris-Foulkes estimate   =     -55.54471431 Ry
     estimated scf accuracy    <       0.00199717 Ry

     total magnetization       =     0.27     0.29     0.40 Bohr mag/cell
     absolute magnetization    =     0.67 Bohr mag/cell
     Magnetic field            =  -0.0043245  -0.0057113  -0.0073856 Ry
     lambda                    =       0.50 Ry

     iteration # 21     ecut=    25.00 Ry     beta=0.30
     Davidson diagonalization with overlap
     ethr =  2.50E-05,  avg # of iterations =  1.0
      External magnetic field:      -0.01151     -0.01531     -0.01927

 ==============================================================================
     atom number    1 relative position :    0.0000   0.0000   0.0000
     charge :     6.411333
     magnetization :          0.333591    0.444635    0.556120
     magnetization/charge:    0.052031    0.069351    0.086740
     polar coord.: r, theta, phi [deg] :     0.786290   44.986742   53.120620

 ==============================================================================

     total cpu time spent up to now is        8.1 secs

     total energy              =     -55.54404592 Ry
     Harris-Foulkes estimate   =     -55.54480256 Ry
     estimated scf accuracy    <       0.00027149 Ry

     total magnetization       =     0.33     0.45     0.55 Bohr mag/cell
     absolute magnetization    =     0.84 Bohr mag/cell
     Magnetic field            =  -0.0115092  -0.0153105  -0.0192675 Ry
     lambda                    =       0.50 Ry

     iteration # 22     ecut=    25.00 Ry     beta=0.30
     Davidson diagonalization with overlap
     ethr =  3.39E-06,  avg # of iterations =  1.3
      External magnetic field:      -0.00162     -0.00211     -0.00273

 ==============================================================================
     atom number    1 relative position :    0.0000   0.0000   0.0000
     charge :     6.411583
     magnetization :          0.311113    0.414672    0.518561
     magnetization/charge:    0.048524    0.064675    0.080879
     polar coord.: r, theta, phi [deg] :     0.733246   44.991370   53.120471

 ==============================================================================

     total cpu time spent up to now is        8.4 secs

     total energy              =     -55.53766795 Ry
     Harris-Foulkes estimate   =     -55.54848807 Ry
     estimated scf accuracy    <       0.00864231 Ry

     total magnetization       =     0.09     0.12     0.14 Bohr mag/cell
     absolute magnetization    =     0.34 Bohr mag/cell
     Magnetic field            =  -0.0016222  -0.0021079  -0.0027318 Ry
     lambda                    =       0.50 Ry

     iteration # 23     ecut=    25.00 Ry     beta=0.30
     Davidson diagonalization with overlap
     ethr =  3.39E-06,  avg # of iterations =  1.5
      External magnetic field:      -0.00272     -0.00354     -0.00449

 ==============================================================================
     atom number    1 relative position :    0.0000   0.0000   0.0000
     charge :     6.412123
     magnetization :          0.312063    0.415921    0.520080
     magnetization/charge:    0.048668    0.064865    0.081109
     polar coord.: r, theta, phi [deg] :     0.735430   44.994195   53.119336

 ==============================================================================

     total cpu time spent up to now is        8.7 secs

     total energy              =     -55.54499118 Ry
     Harris-Foulkes estimate   =     -55.54556435 Ry
     estimated scf accuracy    <       0.00145392 Ry

     total magnetization       =     0.40     0.54     0.67 Bohr mag/cell
     absolute magnetization    =     0.98 Bohr mag/cell
     Magnetic field            =  -0.0027160  -0.0035363  -0.0044928 Ry
     lambda                    =       0.50 Ry

     iteration # 24     ecut=    25.00 Ry     beta=0.30
     Davidson diagonalization with overlap
     ethr =  3.39E-06,  avg # of iterations =  1.0
      External magnetic field:      -0.00318     -0.00419     -0.00524

 ==============================================================================
     atom number    1 relative position :    0.0000   0.0000   0.0000
     charge :     6.412935
     magnetization :          0.311286    0.414898    0.518760
     magnetization/charge:    0.048540    0.064697    0.080893
     polar coord.: r, theta, phi [deg] :     0.733588   44.996150   53.120114

 ==============================================================================

     total cpu time spent up to now is        9.0 secs

     total energy              =     -55.54489801 Ry
     Harris-Foulkes estimate   =     -55.54509057 Ry
     estimated scf accuracy    <       0.00061870 Ry

     total magnetization       =     0.37     0.49     0.61 Bohr mag/cell
     absolute magnetization    =     0.90 Bohr mag/cell
     Magnetic field            =  -0.0031830  -0.0041912  -0.0052370 Ry
     lambda                    =       0.50 Ry

     iteration # 25     ecut=    25.00 Ry     beta=0.30
     Davidson diagonalization with overlap
     ethr =  3.39E-06,  avg # of iterations =  1.0
      External magnetic field:      -0.00369     -0.00505     -0.00612

 ==============================================================================
     atom number    1 relative position :    0.0000   0.0000   0.0000
     charge :     6.412580
     magnetization :          0.312125    0.416205    0.520179
     magnetization/charge:    0.048674    0.064904    0.081119
     polar coord.: r, theta, phi [deg] :     0.735687   45.003320   53.132593

 ==============================================================================

     total cpu time spent up to now is        9.3 secs

     total energy              =     -55.54480877 Ry
     Harris-Foulkes estimate   =     -55.54493001 Ry
     estimated scf accuracy    <       0.00038348 Ry

     total magnetization       =     0.35     0.47     0.58 Bohr mag/cell
     absolute magnetization    =     0.86 Bohr mag/cell
     Magnetic field            =  -0.0036938  -0.0050474  -0.0061208 Ry
     lambda                    =       0.50 Ry

     iteration # 26     ecut=    25.00 Ry     beta=0.30
     Davidson diagonalization with overlap
     ethr =  3.39E-06,  avg # of iterations =  1.0
      External magnetic field:      -0.00467     -0.00586     -0.00763

 ==============================================================================
     atom number    1 relative position :    0.0000   0.0000   0.0000
     charge :     6.412657
     magnetization :          0.312907    0.416822    0.521368
     magnetization/charge:    0.048795    0.065000    0.081303
     polar coord.: r, theta, phi [deg] :     0.737208   44.990904   53.104551

 ==============================================================================

     total cpu time spent up to now is        9.6 secs

     total energy              =     -55.54472470 Ry
     Harris-Foulkes estimate   =     -55.54483314 Ry
     estimated scf accuracy    <       0.00014984 Ry

     total magnetization       =     0.33     0.44     0.56 Bohr mag/cell
     absolute magnetization    =     0.82 Bohr mag/cell
     Magnetic field            =  -0.0046730  -0.0058614  -0.0076308 Ry
     lambda                    =       0.50 Ry

     iteration # 27     ecut=    25.00 Ry     beta=0.30
     Davidson diagonalization with overlap
     ethr =  1.87E-06,  avg # of iterations =  1.2
      External magnetic field:      -0.00439     -0.00591     -0.00747

 ==============================================================================
     atom number    1 relative position :    0.0000   0.0000   0.0000
     charge :     6.412338
     magnetization :          0.312365    0.416503    0.520748
     magnetization/charge:    0.048713    0.064953    0.081210
     polar coord.: r, theta, phi [deg] :     0.736359   44.993016   53.131234

 ==============================================================================

     total cpu time spent up to now is        9.9 secs

     total energy              =     -55.54478111 Ry
     Harris-Foulkes estimate   =     -55.54478472 Ry
     estimated scf accuracy    <       0.00000515 Ry

     total magnetization       =     0.30     0.41     0.51 Bohr mag/cell
     absolute magnetization    =     0.76 Bohr mag/cell
     Magnetic field            =  -0.0043934  -0.0059061  -0.0074689 Ry
     lambda                    =       0.50 Ry

     iteration # 28     ecut=    25.00 Ry     beta=0.30
     Davidson diagonalization with overlap
     ethr =  6.43E-08,  avg # of iterations =  1.0
      External magnetic field:      -0.00484     -0.00641     -0.00800

 ==============================================================================
     atom number    1 relative position :    0.0000   0.0000   0.0000
     charge :     6.412105
     magnetization :          0.312935    0.417197    0.521488
     magnetization/charge:    0.048804    0.065064    0.081329
     polar coord.: r, theta, phi [deg] :     0.737517   45.001682   53.126839

 ==============================================================================

     total cpu time spent up to now is       10.2 secs

     total energy              =     -55.54478548 Ry
     Harris-Foulkes estimate   =     -55.54478272 Ry
     estimated scf accuracy    <       0.00000611 Ry

     total magnetization       =     0.31     0.41     0.51 Bohr mag/cell
     absolute magnetization    =     0.77 Bohr mag/cell
     Magnetic field            =  -0.0048421  -0.0064136  -0.0080038 Ry
     lambda                    =       0.50 Ry

     iteration # 29     ecut=    25.00 Ry     beta=0.30
     Davidson diagonalization with overlap
     ethr =  6.43E-08,  avg # of iterations =  1.0
      External magnetic field:      -0.00457     -0.00609     -0.00761

 ==============================================================================
     atom number    1 relative position :    0.0000   0.0000   0.0000
     charge :     6.412207
     magnetization :          0.312613    0.416789    0.521008
     magnetization/charge:    0.048753    0.064999    0.081253
     polar coord.: r, theta, phi [deg] :     0.736810   44.999487   53.128270

 ==============================================================================

     total cpu time spent up to now is       10.5 secs

     total energy              =     -55.54477976 Ry
     Harris-Foulkes estimate   =     -55.54479617 Ry
     estimated scf accuracy    <       0.00001208 Ry

     total magnetization       =     0.30     0.40     0.49 Bohr mag/cell
     absolute magnetization    =     0.74 Bohr mag/cell
     Magnetic field            =  -0.0045734  -0.0060878  -0.0076125 Ry
     lambda                    =       0.50 Ry

     iteration # 30     ecut=    25.00 Ry     beta=0.30
     Davidson diagonalization with overlap
     ethr =  6.43E-08,  avg # of iterations =  1.0
      External magnetic field:      -0.00468     -0.00624     -0.00779

 ==============================================================================
     atom number    1 relative position :    0.0000   0.0000   0.0000
     charge :     6.412097
     magnetization :          0.312715    0.416955    0.521186
     magnetization/charge:    0.048770    0.065026    0.081282
     polar coord.: r, theta, phi [deg] :     0.737074   45.000392   53.130261

 ==============================================================================

     total cpu time spent up to now is       10.7 secs

     total energy              =     -55.54478753 Ry
     Harris-Foulkes estimate   =     -55.54478461 Ry
     estimated scf accuracy    <       0.00000110 Ry

     total magnetization       =     0.30     0.41     0.51 Bohr mag/cell
     absolute magnetization    =     0.76 Bohr mag/cell
     Magnetic field            =  -0.0046762  -0.0062424  -0.0077933 Ry
     lambda                    =       0.50 Ry

     iteration # 31     ecut=    25.00 Ry     beta=0.30
     Davidson diagonalization with overlap
     ethr =  1.38E-08,  avg # of iterations =  1.0
      External magnetic field:      -0.00456     -0.00608     -0.00760

 ==============================================================================
     atom number    1 relative position :    0.0000   0.0000   0.0000
     charge :     6.412164
     magnetization :          0.312417    0.416554    0.520692
     magnetization/charge:    0.048723    0.064963    0.081204
     polar coord.: r, theta, phi [deg] :     0.736371   45.000025   53.129963

 ==============================================================================

     total cpu time spent up to now is       11.0 secs

     total energy              =     -55.54478332 Ry
     Harris-Foulkes estimate   =     -55.54478855 Ry
     estimated scf accuracy    <       0.00000278 Ry

     total magnetization       =     0.30     0.40     0.50 Bohr mag/cell
     absolute magnetization    =     0.75 Bohr mag/cell
     Magnetic field            =  -0.0045628  -0.0060812  -0.0076013 Ry
     lambda                    =       0.50 Ry

     iteration # 32     ecut=    25.00 Ry     beta=0.30
     Davidson diagonalization with overlap
     ethr =  1.38E-08,  avg # of iterations =  1.0
      External magnetic field:      -0.00453     -0.00604     -0.00755

 ==============================================================================
     atom number    1 relative position :    0.0000   0.0000   0.0000
     charge :     6.412152
     magnetization :          0.312299    0.416404    0.520503
     magnetization/charge:    0.048704    0.064940    0.081174
     polar coord.: r, theta, phi [deg] :     0.736102   44.999982   53.130387

 ==============================================================================

     total cpu time spent up to now is       11.3 secs

     total energy              =     -55.54478358 Ry
     Harris-Foulkes estimate   =     -55.54478435 Ry
     estimated scf accuracy    <       0.00000005 Ry

     total magnetization       =     0.30     0.41     0.51 Bohr mag/cell
     absolute magnetization    =     0.76 Bohr mag/cell
     Magnetic field            =  -0.0045313  -0.0060438  -0.0075543 Ry
     lambda                    =       0.50 Ry

     iteration # 33     ecut=    25.00 Ry     beta=0.30
     Davidson diagonalization with overlap
     ethr =  5.96E-10,  avg # of iterations =  2.9
      External magnetic field:      -0.00455     -0.00607     -0.00758

 ==============================================================================
     atom number    1 relative position :    0.0000   0.0000   0.0000
     charge :     6.412145
     magnetization :          0.312334    0.416446    0.520557
     magnetization/charge:    0.048710    0.064946    0.081183
     polar coord.: r, theta, phi [deg] :     0.736178   45.000005   53.130157

 ==============================================================================

     total cpu time spent up to now is       11.7 secs

     total energy              =     -55.54478406 Ry
     Harris-Foulkes estimate   =     -55.54478365 Ry
     estimated scf accuracy    <       0.00000005 Ry

     total magnetization       =     0.31     0.41     0.51 Bohr mag/cell
     absolute magnetization    =     0.76 Bohr mag/cell
     Magnetic field            =  -0.0045507  -0.0060674  -0.0075844 Ry
     lambda                    =       0.50 Ry

     iteration # 34     ecut=    25.00 Ry     beta=0.30
     Davidson diagonalization with overlap
     ethr =  5.96E-10,  avg # of iterations =  1.0
      External magnetic field:      -0.00449     -0.00600     -0.00749

 ==============================================================================
     atom number    1 relative position :    0.0000   0.0000   0.0000
     charge :     6.412144
     magnetization :          0.312276    0.416376    0.520461
     magnetization/charge:    0.048701    0.064936    0.081168
     polar coord.: r, theta, phi [deg] :     0.736047   45.000308   53.130682

 ==============================================================================

     total cpu time spent up to now is       12.0 secs

     End of self-consistent calculation

          k = 0.0000 0.0000 0.2500 (   148 PWs)   bands (ev):

     7.0426   7.2421  12.7594  12.7594  13.0873  13.0873  13.1316  13.4838
    13.7020  14.2562  14.6496  15.2720  36.1707  36.3037  38.5016  38.5017

          k = 0.0000-0.2500 0.5000 (   151 PWs)   bands (ev):

    10.0424  10.1070  12.0741  12.3670  12.4515  12.7149  14.0060  14.4646
    15.2626  15.6865  15.9320  16.3128  26.5053  26.5553  33.9092  34.1124

          k =-0.2500 0.2500 0.2500 (   159 PWs)   bands (ev):

     9.2499   9.4066  11.8380  11.8380  12.1231  12.1231  14.3919  14.3919
    14.9862  14.9862  15.4336  15.7934  31.7725  31.7725  31.8291  31.8291

          k =-0.2500 0.7500-0.2500 (   146 PWs)   bands (ev):

    11.3565  11.3565  11.6389  11.6389  11.8381  12.0833  14.8006  14.8006
    15.2400  15.2400  22.6998  22.6998  22.7908  22.7908  25.2067  25.2215

          k = 0.5000-0.5000 0.2500 (   150 PWs)   bands (ev):

    10.5873  10.7503  11.3660  11.6096  12.9468  13.0622  14.5329  14.6520
    15.1120  15.2881  19.4975  19.6163  23.3528  23.4707  29.5318  29.5953

          k = 0.0000 0.0000 0.7500 (   144 PWs)   bands (ev):

    10.4085  10.5101  10.6722  10.8527  14.5280  14.5280  14.8951  14.8951
    15.1234  15.5459  20.2842  20.3238  27.6811  27.6811  27.7979  27.7979

          k = 0.2500 0.0000 0.0000 (   148 PWs)   bands (ev):

     7.0426   7.2421  12.7594  12.7594  13.0873  13.0873  13.1316  13.4838
    13.7020  14.2562  14.6496  15.2721  36.1707  36.3037  38.6304  38.6304

          k = 0.0000 0.2500 0.0000 (   148 PWs)   bands (ev):

     7.0426   7.2421  12.7594  12.7594  13.0873  13.0873  13.1316  13.4838
    13.7020  14.2562  14.6496  15.2721  36.1707  36.3037  38.6304  38.6304

          k = 0.0000-0.2500-0.5000 (   151 PWs)   bands (ev):

    10.0424  10.1070  12.0741  12.3670  12.4515  12.7149  14.0060  14.4646
    15.2626  15.6865  15.9320  16.3128  26.5053  26.5553  33.9090  34.1124

          k =-0.2500 0.0000-0.5000 (   151 PWs)   bands (ev):

    10.0424  10.1070  12.0741  12.3670  12.4515  12.7149  14.0060  14.4646
    15.2626  15.6865  15.9320  16.3128  26.5053  26.5553  33.9091  34.1124

          k = 0.2500 0.0000-0.5000 (   151 PWs)   bands (ev):

    10.0424  10.1070  12.0741  12.3670  12.4515  12.7149  14.0060  14.4646
    15.2626  15.6865  15.9320  16.3128  26.5053  26.5553  34.0435  34.1969

          k = 0.5000 0.2500 0.0000 (   151 PWs)   bands (ev):

    10.0424  10.1070  12.0741  12.3670  12.4515  12.7149  14.0060  14.4646
    15.2626  15.6865  15.9320  16.3128  26.5053  26.5553  33.9090  34.1123

          k =-0.5000 0.2500 0.0000 (   151 PWs)   bands (ev):

    10.0424  10.1070  12.0741  12.3670  12.4515  12.7149  14.0060  14.4646
    15.2626  15.6865  15.9320  16.3128  26.5053  26.5553  33.9090  34.0437

          k = 0.0000 0.5000-0.2500 (   151 PWs)   bands (ev):

    10.0424  10.1070  12.0741  12.3670  12.4515  12.7149  14.0060  14.4646
    15.2626  15.6865  15.9320  16.3128  26.5053  26.5553  33.9090  34.1124

          k = 0.0000 0.5000 0.2500 (   151 PWs)   bands (ev):

    10.0424  10.1070  12.0741  12.3670  12.4515  12.7149  14.0060  14.4646
    15.2626  15.6865  15.9320  16.3128  26.5053  26.5553  33.9090  34.0435

          k =-0.2500 0.5000 0.0000 (   151 PWs)   bands (ev):

    10.0424  10.1070  12.0741  12.3670  12.4515  12.7149  14.0060  14.4646
    15.2626  15.6865  15.9320  16.3128  26.5053  26.5553  33.9090  34.1124

          k = 0.2500 0.5000 0.0000 (   151 PWs)   bands (ev):

    10.0424  10.1070  12.0741  12.3670  12.4515  12.7149  14.0060  14.4646
    15.2626  15.6865  15.9320  16.3128  26.5053  26.5553  33.9090  34.1124

          k = 0.5000 0.0000-0.2500 (   151 PWs)   bands (ev):

    10.0424  10.1070  12.0741  12.3670  12.4515  12.7149  14.0060  14.4646
    15.2626  15.6865  15.9320  16.3128  26.5053  26.5553  33.9090  34.1124

          k = 0.5000 0.0000 0.2500 (   151 PWs)   bands (ev):

    10.0424  10.1070  12.0741  12.3670  12.4515  12.7149  14.0060  14.4646
    15.2626  15.6865  15.9320  16.3128  26.5053  26.5553  33.9091  34.1124

          k = 0.2500 0.2500-0.2500 (   159 PWs)   bands (ev):

     9.2499   9.4066  11.8380  11.8380  12.1231  12.1231  14.3919  14.3919
    14.9862  14.9862  15.4336  15.7934  31.7725  31.7725  31.8291  31.8291

          k =-0.2500-0.2500-0.2500 (   159 PWs)   bands (ev):

     9.2499   9.4066  11.8380  11.8380  12.1231  12.1231  14.3919  14.3919
    14.9862  14.9862  15.4336  15.7934  31.7725  31.7725  31.8291  31.8291

          k =-0.2500 0.2500-0.2500 (   159 PWs)   bands (ev):

     9.2499   9.4066  11.8380  11.8380  12.1231  12.1231  14.3919  14.3919
    14.9862  14.9862  15.4336  15.7934  31.7724  31.7725  31.8291  31.8291

          k = 0.2500 0.7500 0.2500 (   146 PWs)   bands (ev):

    11.3565  11.3565  11.6389  11.6389  11.8381  12.0833  14.8006  14.8006
    15.2400  15.2400  22.6998  22.6998  22.7908  22.7908  25.2067  25.2215

          k =-0.2500-0.7500 0.2500 (   146 PWs)   bands (ev):

    11.3565  11.3565  11.6389  11.6389  11.8381  12.0833  14.8006  14.8006
    15.2400  15.2400  22.6998  22.6998  22.7908  22.7908  25.2067  25.2215

          k = 0.7500-0.2500 0.2500 (   146 PWs)   bands (ev):

    11.3565  11.3565  11.6389  11.6389  11.8381  12.0833  14.8006  14.8006
    15.2400  15.2400  22.6998  22.6998  22.7908  22.7908  25.2067  25.2215

          k =-0.5000-0.5000-0.2500 (   150 PWs)   bands (ev):

    10.5873  10.7503  11.3660  11.6096  12.9468  13.0622  14.5329  14.6520
    15.1120  15.2881  19.4975  19.6163  23.3528  23.4707  29.5318  29.5953

          k = 0.2500 0.5000 0.5000 (   150 PWs)   bands (ev):

    10.5873  10.7502  11.3660  11.6096  12.9468  13.0622  14.5329  14.6520
    15.1120  15.2881  19.4975  19.6163  23.3528  23.4707  29.5318  29.5953

          k =-0.2500 0.5000-0.5000 (   150 PWs)   bands (ev):

    10.5873  10.7502  11.3660  11.6096  12.9468  13.0622  14.5329  14.6520
    15.1120  15.2881  19.4975  19.6163  23.3528  23.4707  29.5318  29.5953

          k =-0.5000 0.2500-0.5000 (   150 PWs)   bands (ev):

    10.5873  10.7502  11.3660  11.6096  12.9468  13.0622  14.5329  14.6520
    15.1120  15.2881  19.4975  19.6163  23.3528  23.4707  29.5318  29.5953

          k =-0.5000-0.2500 0.5000 (   150 PWs)   bands (ev):

    10.5873  10.7502  11.3660  11.6096  12.9468  13.0622  14.5329  14.6520
    15.1120  15.2881  19.4975  19.6163  23.3528  23.4707  29.5318  29.5953

          k = 0.7500 0.0000 0.0000 (   144 PWs)   bands (ev):

    10.4085  10.5101  10.6722  10.8527  14.5280  14.5280  14.8951  14.8951
    15.1234  15.5459  20.2842  20.3238  27.6811  27.6811  27.7979  27.7979

          k = 0.0000 0.7500 0.0000 (   144 PWs)   bands (ev):

    10.4085  10.5101  10.6722  10.8527  14.5280  14.5280  14.8951  14.8951
    15.1234  15.5459  20.2842  20.3238  27.6811  27.6811  27.7979  27.7979

     the Fermi energy is    14.8545 ev

!    total energy              =     -55.54478269 Ry
     Harris-Foulkes estimate   =     -55.54478409 Ry
     estimated scf accuracy    <          6.7E-10 Ry

     The total energy is the sum of the following terms:

     one-electron contribution =       8.97516668 Ry
     hartree contribution      =       6.02998933 Ry
     xc contribution           =     -25.89292462 Ry
     ewald contribution        =     -44.64461207 Ry
     smearing contrib. (-TS)   =      -0.01240202 Ry

     total magnetization       =     0.30     0.41     0.51 Bohr mag/cell
     absolute magnetization    =     0.76 Bohr mag/cell
     Magnetic field            =  -0.0044925  -0.0059991  -0.0074889 Ry
     lambda                    =       0.50 Ry

     convergence has been achieved in  34 iterations

     Writing output data file fe.save
 
     init_run     :      0.27s CPU      0.30s WALL (       1 calls)
     electrons    :     11.39s CPU     11.62s WALL (       1 calls)

     Called by init_run:
     wfcinit      :      0.08s CPU      0.09s WALL (       1 calls)
     potinit      :      0.00s CPU      0.01s WALL (       1 calls)

     Called by electrons:
     c_bands      :      8.88s CPU      9.06s WALL (      34 calls)
     sum_band     :      2.20s CPU      2.26s WALL (      34 calls)
     v_of_rho     :      0.07s CPU      0.08s WALL (      35 calls)
     newd         :      0.14s CPU      0.14s WALL (      35 calls)
     mix_rho      :      0.06s CPU      0.06s WALL (      34 calls)

     Called by c_bands:
     init_us_2    :      0.07s CPU      0.07s WALL (    2208 calls)
     cegterg      :      8.46s CPU      8.64s WALL (    1088 calls)

     Called by sum_band:
     sum_band:bec :      0.02s CPU      0.03s WALL (    1088 calls)
     addusdens    :      0.55s CPU      0.56s WALL (      34 calls)

     Called by *egterg:
     h_psi        :      5.87s CPU      6.02s WALL (    3278 calls)
     s_psi        :      0.15s CPU      0.15s WALL (    3278 calls)
     g_psi        :      0.04s CPU      0.05s WALL (    2158 calls)
     cdiaghg      :      1.79s CPU      1.75s WALL (    3246 calls)

     Called by h_psi:
     h_psi:pot    :      5.86s CPU      5.99s WALL (    3278 calls)
     h_psi:calbec :      0.17s CPU      0.14s WALL (    3278 calls)
     add_vuspsi   :      0.17s CPU      0.18s WALL (    3278 calls)

     General routines
     calbec       :      0.23s CPU      0.19s WALL (    4366 calls)
     fft          :      0.11s CPU      0.11s WALL (    1133 calls)
     ffts         :      0.01s CPU      0.01s WALL (     276 calls)
     fftw         :      5.08s CPU      5.37s WALL (  194416 calls)
     interpolate  :      0.04s CPU      0.04s WALL (     276 calls)
 
     Parallel routines
     fft_scatter  :      1.17s CPU      1.57s WALL (  195825 calls)
 
     PWSCF        :    11.82s CPU        12.09s WALL

 
   This run was terminated on:  14:33:22  23Aug2016            

=------------------------------------------------------------------------------=
   JOB DONE.
=------------------------------------------------------------------------------=
