
     Program PWSCF v.5.4.0 (svn rev. 12590M) starts on 21Jul2016 at 15:35:31 

     This program is part of the open-source Quantum ESPRESSO suite
     for quantum simulation of materials; please cite
         "P. Giannozzi et al., J. Phys.:Condens. Matter 21 395502 (2009);
          URL http://www.quantum-espresso.org", 
     in publications or presentations arising from this work. More details at
     http://www.quantum-espresso.org/quote
 
           HOST :    x86_64-pc-linux-gnu
           ARCH :    x86_64
             CC :    icc
            CPP :    cpp
            F90 :    gfortran
            F77 :    gfortran
         DFLAGS :    -D__GFORTRAN -D__STD_F95 -D__DFTI -D__MPI -D__PARA -D__HDF5
      BLAS LIBS :    -lmkl_gf_lp64  -lmkl_sequential -lmkl_core
    LAPACK LIBS :    
       FFT LIBS :    
      MASS LIBS :    

     Parallel version (MPI), running on     2 processors
     R & G space division:  proc/nbgrp/npool/nimage =       2
     Waiting for input...
     Reading input from standard input
     Message from routine read_cards :
     DEPRECATED: no units specified in ATOMIC_POSITIONS card
     Message from routine read_cards :
     ATOMIC_POSITIONS: units set to alat

     Current dimensions of program PWSCF are:
     Max number of different atomic species (ntypx) = 10
     Max number of k-points (npk) =  40000
     Max angular momentum in pseudopotentials (lmaxx) =  3
               file Fe.pz-nd-rrkjus.UPF: wavefunction(s)  4S renormalized

     Subspace diagonalization in iterative solution of the eigenvalue problem:
     a serial algorithm will be used

 
     Parallelization info
     --------------------
     sticks:   dense  smooth     PW     G-vecs:    dense   smooth      PW
     Min         153      77     27                 1683      601     124
     Max         154      78     28                 1684      604     125
     Sum         307     155     55                 3367     1205     249
 
     Generating pointlists ...
     new r_m :   0.3572 (alat units)  1.8637 (a.u.) for type    1


     bravais-lattice index     =            3
     lattice parameter (alat)  =       5.2170  a.u.
     unit-cell volume          =      70.9958 (a.u.)^3
     number of atoms/cell      =            1
     number of atomic types    =            1
     number of electrons       =         8.00
     number of Kohn-Sham states=           16
     kinetic-energy cutoff     =      25.0000  Ry
     charge density cutoff     =     200.0000  Ry
     convergence threshold     =      1.0E-09
     mixing beta               =       0.3000
     number of iterations used =            8  plain     mixing
     Exchange-correlation      =  SLA  PZ   NOGX NOGC ( 1  1  0  0 0 0)
     Noncollinear calculation without spin-orbit


     celldm(1)=   5.217000  celldm(2)=   0.000000  celldm(3)=   0.000000
     celldm(4)=   0.000000  celldm(5)=   0.000000  celldm(6)=   0.000000

     crystal axes: (cart. coord. in units of alat)
               a(1) = (   0.500000   0.500000   0.500000 )  
               a(2) = (  -0.500000   0.500000   0.500000 )  
               a(3) = (  -0.500000  -0.500000   0.500000 )  

     reciprocal axes: (cart. coord. in units 2 pi/alat)
               b(1) = (  1.000000  0.000000  1.000000 )  
               b(2) = ( -1.000000  1.000000  0.000000 )  
               b(3) = (  0.000000 -1.000000  1.000000 )  


     PseudoPot. # 1 for Fe read from file:
     /home/nvarini/espresso_hdf5/espresso/pseudo/Fe.pz-nd-rrkjus.UPF
     MD5 check sum: 2e083728ad07023434bc1cc596eb954d
     Pseudo is Ultrasoft + core correction, Zval =  8.0
     Generated by new atomic code, or converted to UPF format
     Using radial grid of  957 points,  6 beta functions with: 
                l(1) =   0
                l(2) =   0
                l(3) =   1
                l(4) =   1
                l(5) =   2
                l(6) =   2
     Q(r) pseudized with 0 coefficients 


     atomic species   valence    mass     pseudopotential
        Fe             8.00    55.84700     Fe( 1.00)

      2 Sym. Ops., with inversion, found



   Cartesian axes

     site n.     atom                  positions (alat units)
         1           Fe  tau(   1) = (   0.0000000   0.0000000   0.0000000  )

     number of k points=    32  Marzari-Vanderbilt smearing, width (Ry)=  0.0500
                       cart. coord. in units 2pi/alat
        k(    1) = (   0.0000000   0.0000000   0.2500000), wk =   0.0312500
        k(    2) = (   0.0000000  -0.2500000   0.5000000), wk =   0.0312500
        k(    3) = (  -0.2500000   0.2500000   0.2500000), wk =   0.0312500
        k(    4) = (  -0.2500000   0.7500000  -0.2500000), wk =   0.0312500
        k(    5) = (   0.5000000  -0.5000000   0.2500000), wk =   0.0312500
        k(    6) = (   0.0000000   0.0000000   0.7500000), wk =   0.0312500
        k(    7) = (   0.2500000   0.0000000   0.0000000), wk =   0.0312500
        k(    8) = (   0.0000000   0.2500000   0.0000000), wk =   0.0312500
        k(    9) = (   0.0000000  -0.2500000  -0.5000000), wk =   0.0312500
        k(   10) = (  -0.2500000   0.0000000  -0.5000000), wk =   0.0312500
        k(   11) = (   0.2500000   0.0000000  -0.5000000), wk =   0.0312500
        k(   12) = (   0.5000000   0.2500000   0.0000000), wk =   0.0312500
        k(   13) = (  -0.5000000   0.2500000   0.0000000), wk =   0.0312500
        k(   14) = (   0.0000000   0.5000000  -0.2500000), wk =   0.0312500
        k(   15) = (   0.0000000   0.5000000   0.2500000), wk =   0.0312500
        k(   16) = (  -0.2500000   0.5000000   0.0000000), wk =   0.0312500
        k(   17) = (   0.2500000   0.5000000   0.0000000), wk =   0.0312500
        k(   18) = (   0.5000000   0.0000000  -0.2500000), wk =   0.0312500
        k(   19) = (   0.5000000   0.0000000   0.2500000), wk =   0.0312500
        k(   20) = (   0.2500000   0.2500000  -0.2500000), wk =   0.0312500
        k(   21) = (  -0.2500000  -0.2500000  -0.2500000), wk =   0.0312500
        k(   22) = (  -0.2500000   0.2500000  -0.2500000), wk =   0.0312500
        k(   23) = (   0.2500000   0.7500000   0.2500000), wk =   0.0312500
        k(   24) = (  -0.2500000  -0.7500000   0.2500000), wk =   0.0312500
        k(   25) = (   0.7500000  -0.2500000   0.2500000), wk =   0.0312500
        k(   26) = (  -0.5000000  -0.5000000  -0.2500000), wk =   0.0312500
        k(   27) = (   0.2500000   0.5000000   0.5000000), wk =   0.0312500
        k(   28) = (  -0.2500000   0.5000000  -0.5000000), wk =   0.0312500
        k(   29) = (  -0.5000000   0.2500000  -0.5000000), wk =   0.0312500
        k(   30) = (  -0.5000000  -0.2500000   0.5000000), wk =   0.0312500
        k(   31) = (   0.7500000   0.0000000   0.0000000), wk =   0.0312500
        k(   32) = (   0.0000000   0.7500000   0.0000000), wk =   0.0312500

     Dense  grid:     3367 G-vectors     FFT dimensions: (  24,  24,  24)

     Smooth grid:     1205 G-vectors     FFT dimensions: (  15,  15,  15)

     Largest allocated arrays     est. size (Mb)     dimensions
        Kohn-Sham Wavefunctions         0.04 Mb     (     164,   16)
        NL pseudopotentials             0.02 Mb     (      82,   18)
        Each V/rho on FFT grid          0.11 Mb     (    6912)
        Each G-vector array             0.01 Mb     (    1684)
        G-vector shells                 0.00 Mb     (      64)
     Largest temporary arrays     est. size (Mb)     dimensions
        Auxiliary wavefunctions         0.16 Mb     (     164,   64)
        Each subspace H/S matrix        0.06 Mb     (      64,   64)
        Each <psi_i|beta_j> matrix      0.01 Mb     (      18,   2,   16)
        Arrays for rho mixing           0.84 Mb     (    6912,    8)

     Check: negative/imaginary core charge=   -0.000013    0.000000

     Initial potential from superposition of free atoms

     starting charge    7.99953, renormalised to    8.00000
      External magnetic field:      -1.40219     -1.85888     -2.32843

 ==============================================================================
     atom number    1 relative position :    0.0000   0.0000   0.0000
     charge :     6.664635
     magnetization :          1.418059    1.881828    2.356304
     magnetization/charge:    0.212774    0.282360    0.353553
     polar coord.: r, theta, phi [deg] :     3.332318   45.000000   53.000000

 ==============================================================================
     Starting wfc are   12 randomized atomic wfcs +    4 random wfc

     total cpu time spent up to now is        0.3 secs

     per-process dynamical memory:     6.0 Mb

     Self-consistent Calculation

     iteration #  1     ecut=    25.00 Ry     beta=0.30
     Davidson diagonalization with overlap
     ethr =  1.00E-02,  avg # of iterations = 13.1
      External magnetic field:       0.13049      0.17362      0.21707

 ==============================================================================
     atom number    1 relative position :    0.0000   0.0000   0.0000
     charge :     6.446378
     magnetization :          0.234107    0.311666    0.390167
     magnetization/charge:    0.036316    0.048347    0.060525
     polar coord.: r, theta, phi [deg] :     0.551518   44.972840   53.088011

 ==============================================================================

     total cpu time spent up to now is        1.4 secs

     total energy              =     -49.81691892 Ry
     Harris-Foulkes estimate   =     -91.11089479 Ry
     estimated scf accuracy    <       2.17493548 Ry

     total magnetization       =    -3.41    -4.52    -5.66 Bohr mag/cell
     absolute magnetization    =     8.00 Bohr mag/cell
     Magnetic field            =   0.1304856   0.1736153   0.2170670 Ry
     lambda                    =       0.50 Ry

     iteration #  2     ecut=    25.00 Ry     beta=0.30
     Davidson diagonalization with overlap
     ethr =  1.00E-02,  avg # of iterations =  6.1
      External magnetic field:      -0.20561     -0.27340     -0.34189

 ==============================================================================
     atom number    1 relative position :    0.0000   0.0000   0.0000
     charge :     6.429311
     magnetization :          0.514040    0.684085    0.855713
     magnetization/charge:    0.079953    0.106401    0.133096
     polar coord.: r, theta, phi [deg] :     1.210147   44.999323   53.077816

 ==============================================================================

     total cpu time spent up to now is        2.1 secs

     total energy              =     -54.07006058 Ry
     Harris-Foulkes estimate   =     -56.28639971 Ry
     estimated scf accuracy    <       0.19963561 Ry

     total magnetization       =     1.60     2.13     2.66 Bohr mag/cell
     absolute magnetization    =     3.77 Bohr mag/cell
     Magnetic field            =  -0.2056143  -0.2733979  -0.3418904 Ry
     lambda                    =       0.50 Ry

     iteration #  3     ecut=    25.00 Ry     beta=0.30
     Davidson diagonalization with overlap
     ethr =  2.50E-03,  avg # of iterations =  3.4
      External magnetic field:       0.07335      0.09762      0.12206

 ==============================================================================
     atom number    1 relative position :    0.0000   0.0000   0.0000
     charge :     6.407260
     magnetization :          0.264757    0.352615    0.441124
     magnetization/charge:    0.041321    0.055034    0.068848
     polar coord.: r, theta, phi [deg] :     0.623718   44.988437   53.099419

 ==============================================================================

     total cpu time spent up to now is        2.5 secs

     total energy              =     -53.84005315 Ry
     Harris-Foulkes estimate   =     -57.46627258 Ry
     estimated scf accuracy    <       0.65791158 Ry

     total magnetization       =    -1.98    -2.64    -3.30 Bohr mag/cell
     absolute magnetization    =     4.67 Bohr mag/cell
     Magnetic field            =   0.0733511   0.0976241   0.1220574 Ry
     lambda                    =       0.50 Ry

     iteration #  4     ecut=    25.00 Ry     beta=0.30
     Davidson diagonalization with overlap
     ethr =  2.50E-03,  avg # of iterations =  1.2
      External magnetic field:      -0.00159     -0.00212     -0.00267

 ==============================================================================
     atom number    1 relative position :    0.0000   0.0000   0.0000
     charge :     6.412663
     magnetization :          0.330555    0.440235    0.550633
     magnetization/charge:    0.051547    0.068651    0.085867
     polar coord.: r, theta, phi [deg] :     0.778634   44.994172   53.098619

 ==============================================================================

     total cpu time spent up to now is        2.8 secs

     total energy              =     -55.41694913 Ry
     Harris-Foulkes estimate   =     -55.87247121 Ry
     estimated scf accuracy    <       0.14270796 Ry

     total magnetization       =     1.36     1.81     2.26 Bohr mag/cell
     absolute magnetization    =     3.19 Bohr mag/cell
     Magnetic field            =  -0.0015917  -0.0021228  -0.0026656 Ry
     lambda                    =       0.50 Ry

     iteration #  5     ecut=    25.00 Ry     beta=0.30
     Davidson diagonalization with overlap
     ethr =  1.78E-03,  avg # of iterations =  1.0
      External magnetic field:       0.00025      0.00034      0.00042

 ==============================================================================
     atom number    1 relative position :    0.0000   0.0000   0.0000
     charge :     6.411914
     magnetization :          0.328681    0.437742    0.547503
     magnetization/charge:    0.051261    0.068270    0.085388
     polar coord.: r, theta, phi [deg] :     0.774215   44.994703   53.098717

 ==============================================================================

     total cpu time spent up to now is        3.1 secs

     total energy              =     -55.54609564 Ry
     Harris-Foulkes estimate   =     -55.54503441 Ry
     estimated scf accuracy    <       0.00281763 Ry

     total magnetization       =     0.41     0.55     0.68 Bohr mag/cell
     absolute magnetization    =     1.00 Bohr mag/cell
     Magnetic field            =   0.0002548   0.0003448   0.0004221 Ry
     lambda                    =       0.50 Ry

     iteration #  6     ecut=    25.00 Ry     beta=0.30
     Davidson diagonalization with overlap
     ethr =  3.52E-05,  avg # of iterations =  3.9
      External magnetic field:      -0.03686     -0.04827     -0.06022

 ==============================================================================
     atom number    1 relative position :    0.0000   0.0000   0.0000
     charge :     6.417553
     magnetization :          0.353445    0.469995    0.587577
     magnetization/charge:    0.055075    0.073236    0.091558
     polar coord.: r, theta, phi [deg] :     0.831303   45.023714   53.056136

 ==============================================================================

     total cpu time spent up to now is        3.5 secs

     total energy              =     -55.52073265 Ry
     Harris-Foulkes estimate   =     -55.54677162 Ry
     estimated scf accuracy    <       0.00479454 Ry

     total magnetization       =     0.47     0.62     0.78 Bohr mag/cell
     absolute magnetization    =     1.13 Bohr mag/cell
     Magnetic field            =  -0.0368645  -0.0482738  -0.0602231 Ry
     lambda                    =       0.50 Ry

     iteration #  7     ecut=    25.00 Ry     beta=0.30
     Davidson diagonalization with overlap
     ethr =  3.52E-05,  avg # of iterations =  1.7
      External magnetic field:      -0.03795     -0.05006     -0.06252

 ==============================================================================
     atom number    1 relative position :    0.0000   0.0000   0.0000
     charge :     6.417716
     magnetization :          0.352919    0.469631    0.587187
     magnetization/charge:    0.054991    0.073177    0.091495
     polar coord.: r, theta, phi [deg] :     0.830599   45.013140   53.075791

 ==============================================================================

     total cpu time spent up to now is        3.8 secs

     total energy              =     -55.65598853 Ry
     Harris-Foulkes estimate   =     -55.64810474 Ry
     estimated scf accuracy    <       0.15461088 Ry

     total magnetization       =    -0.72    -0.94    -1.17 Bohr mag/cell
     absolute magnetization    =     1.66 Bohr mag/cell
     Magnetic field            =  -0.0379529  -0.0500608  -0.0625243 Ry
     lambda                    =       0.50 Ry

     iteration #  8     ecut=    25.00 Ry     beta=0.30
     Davidson diagonalization with overlap
     ethr =  3.52E-05,  avg # of iterations =  2.1
      External magnetic field:      -0.04171     -0.05139     -0.06347

 ==============================================================================
     atom number    1 relative position :    0.0000   0.0000   0.0000
     charge :     6.417966
     magnetization :          0.354562    0.468355    0.584909
     magnetization/charge:    0.055245    0.072976    0.091136
     polar coord.: r, theta, phi [deg] :     0.828968   45.123056   52.872967

 ==============================================================================

     total cpu time spent up to now is        4.2 secs

     total energy              =     -55.66405121 Ry
     Harris-Foulkes estimate   =     -55.65607177 Ry
     estimated scf accuracy    <       0.16055078 Ry

     total magnetization       =    -0.74    -0.97    -1.21 Bohr mag/cell
     absolute magnetization    =     1.71 Bohr mag/cell
     Magnetic field            =  -0.0417076  -0.0513916  -0.0634690 Ry
     lambda                    =       0.50 Ry

     iteration #  9     ecut=    25.00 Ry     beta=0.30
     Davidson diagonalization with overlap
     ethr =  3.52E-05,  avg # of iterations =  2.0
      External magnetic field:      -0.07835     -0.10277     -0.12824

 ==============================================================================
     atom number    1 relative position :    0.0000   0.0000   0.0000
     charge :     6.427540
     magnetization :          0.336573    0.447074    0.558707
     magnetization/charge:    0.052364    0.069556    0.086924
     polar coord.: r, theta, phi [deg] :     0.790765   45.045999   53.026283

 ==============================================================================

     total cpu time spent up to now is        4.5 secs

     total energy              =     -55.91645955 Ry
     Harris-Foulkes estimate   =     -55.66422569 Ry
     estimated scf accuracy    <       0.16606718 Ry

     total magnetization       =    -0.82    -0.98    -1.20 Bohr mag/cell
     absolute magnetization    =     1.76 Bohr mag/cell
     Magnetic field            =  -0.0783519  -0.1027710  -0.1282354 Ry
     lambda                    =       0.50 Ry

     iteration # 10     ecut=    25.00 Ry     beta=0.30
     Davidson diagonalization with overlap
     ethr =  3.52E-05,  avg # of iterations =  1.7
      External magnetic field:       0.06764      0.08841      0.11024

 ==============================================================================
     atom number    1 relative position :    0.0000   0.0000   0.0000
     charge :     6.444191
     magnetization :          0.218932    0.292908    0.366557
     magnetization/charge:    0.033974    0.045453    0.056882
     polar coord.: r, theta, phi [deg] :     0.517774   44.931887   53.224000

 ==============================================================================

     total cpu time spent up to now is        4.8 secs

     total energy              =     -54.66068217 Ry
     Harris-Foulkes estimate   =     -55.99325240 Ry
     estimated scf accuracy    <       0.36309613 Ry

     total magnetization       =    -1.43    -1.87    -2.33 Bohr mag/cell
     absolute magnetization    =     3.31 Bohr mag/cell
     Magnetic field            =   0.0676402   0.0884117   0.1102373 Ry
     lambda                    =       0.50 Ry

     iteration # 11     ecut=    25.00 Ry     beta=0.30
     Davidson diagonalization with overlap
     ethr =  3.52E-05,  avg # of iterations =  2.4
      External magnetic field:       0.01836      0.02450      0.03064

 ==============================================================================
     atom number    1 relative position :    0.0000   0.0000   0.0000
     charge :     6.433861
     magnetization :          0.253308    0.337481    0.421948
     magnetization/charge:    0.039371    0.052454    0.065582
     polar coord.: r, theta, phi [deg] :     0.596740   45.001491   53.108713

 ==============================================================================

     total cpu time spent up to now is        5.1 secs

     total energy              =     -55.51604702 Ry
     Harris-Foulkes estimate   =     -55.81876401 Ry
     estimated scf accuracy    <       0.15617985 Ry

     total magnetization       =     1.40     1.83     2.28 Bohr mag/cell
     absolute magnetization    =     3.24 Bohr mag/cell
     Magnetic field            =   0.0183593   0.0245005   0.0306392 Ry
     lambda                    =       0.50 Ry

     iteration # 12     ecut=    25.00 Ry     beta=0.30
     Davidson diagonalization with overlap
     ethr =  3.52E-05,  avg # of iterations =  1.8
      External magnetic field:       0.02165      0.02875      0.03595

 ==============================================================================
     atom number    1 relative position :    0.0000   0.0000   0.0000
     charge :     6.429090
     magnetization :          0.258165    0.344010    0.430078
     magnetization/charge:    0.040156    0.053508    0.066896
     polar coord.: r, theta, phi [deg] :     0.608243   45.001925   53.113303

 ==============================================================================

     total cpu time spent up to now is        5.5 secs

     total energy              =     -55.58684295 Ry
     Harris-Foulkes estimate   =     -55.57774479 Ry
     estimated scf accuracy    <       0.04554287 Ry

     total magnetization       =     0.77     1.02     1.28 Bohr mag/cell
     absolute magnetization    =     1.81 Bohr mag/cell
     Magnetic field            =   0.0216538   0.0287460   0.0359516 Ry
     lambda                    =       0.50 Ry

     iteration # 13     ecut=    25.00 Ry     beta=0.30
     Davidson diagonalization with overlap
     ethr =  3.52E-05,  avg # of iterations =  1.3
      External magnetic field:       0.00625      0.00777      0.01007

 ==============================================================================
     atom number    1 relative position :    0.0000   0.0000   0.0000
     charge :     6.429927
     magnetization :          0.286359    0.382083    0.477545
     magnetization/charge:    0.044535    0.059423    0.074269
     polar coord.: r, theta, phi [deg] :     0.675305   44.996218   53.149624

 ==============================================================================

     total cpu time spent up to now is        5.7 secs

     total energy              =     -55.54565856 Ry
     Harris-Foulkes estimate   =     -55.58721717 Ry
     estimated scf accuracy    <       0.04964261 Ry

     total magnetization       =     0.81     1.07     1.34 Bohr mag/cell
     absolute magnetization    =     1.90 Bohr mag/cell
     Magnetic field            =   0.0062474   0.0077726   0.0100724 Ry
     lambda                    =       0.50 Ry

     iteration # 14     ecut=    25.00 Ry     beta=0.30
     Davidson diagonalization with overlap
     ethr =  3.52E-05,  avg # of iterations =  1.0
      External magnetic field:       0.01540      0.02274      0.02539

 ==============================================================================
     atom number    1 relative position :    0.0000   0.0000   0.0000
     charge :     6.430545
     magnetization :          0.269102    0.356362    0.448385
     magnetization/charge:    0.041847    0.055417    0.069727
     polar coord.: r, theta, phi [deg] :     0.632818   44.882724   52.942207

 ==============================================================================

     total cpu time spent up to now is        6.0 secs

     total energy              =     -55.56742807 Ry
     Harris-Foulkes estimate   =     -55.55322184 Ry
     estimated scf accuracy    <       0.01662616 Ry

     total magnetization       =     0.59     0.77     0.97 Bohr mag/cell
     absolute magnetization    =     1.37 Bohr mag/cell
     Magnetic field            =   0.0154040   0.0227418   0.0253936 Ry
     lambda                    =       0.50 Ry

     iteration # 15     ecut=    25.00 Ry     beta=0.30
     Davidson diagonalization with overlap
     ethr =  3.52E-05,  avg # of iterations =  1.0
      External magnetic field:       0.01987      0.02804      0.03305

 ==============================================================================
     atom number    1 relative position :    0.0000   0.0000   0.0000
     charge :     6.432490
     magnetization :          0.255368    0.338691    0.425226
     magnetization/charge:    0.039700    0.052653    0.066106
     polar coord.: r, theta, phi [deg] :     0.600618   44.929093   52.984254

 ==============================================================================

     total cpu time spent up to now is        6.3 secs

     total energy              =     -55.58146959 Ry
     Harris-Foulkes estimate   =     -55.57209127 Ry
     estimated scf accuracy    <       0.04094274 Ry

     total magnetization       =     0.73     1.04     1.21 Bohr mag/cell
     absolute magnetization    =     1.76 Bohr mag/cell
     Magnetic field            =   0.0198670   0.0280384   0.0330529 Ry
     lambda                    =       0.50 Ry

     iteration # 16     ecut=    25.00 Ry     beta=0.30
     Davidson diagonalization with overlap
     ethr =  3.52E-05,  avg # of iterations =  1.0
      External magnetic field:      -0.00703     -0.00920     -0.01157

 ==============================================================================
     atom number    1 relative position :    0.0000   0.0000   0.0000
     charge :     6.421548
     magnetization :          0.320195    0.426508    0.533434
     magnetization/charge:    0.049863    0.066418    0.083069
     polar coord.: r, theta, phi [deg] :     0.754312   44.994087   53.103099

 ==============================================================================

     total cpu time spent up to now is        6.6 secs

     total energy              =     -55.51480857 Ry
     Harris-Foulkes estimate   =     -55.58198776 Ry
     estimated scf accuracy    <       0.05190564 Ry

     total magnetization       =     0.78     1.08     1.30 Bohr mag/cell
     absolute magnetization    =     1.86 Bohr mag/cell
     Magnetic field            =  -0.0070305  -0.0092026  -0.0115661 Ry
     lambda                    =       0.50 Ry

     iteration # 17     ecut=    25.00 Ry     beta=0.30
     Davidson diagonalization with overlap
     ethr =  3.52E-05,  avg # of iterations =  2.1
      External magnetic field:       0.00638      0.01031      0.01399

 ==============================================================================
     atom number    1 relative position :    0.0000   0.0000   0.0000
     charge :     6.422943
     magnetization :          0.293807    0.389703    0.486162
     magnetization/charge:    0.045743    0.060674    0.075692
     polar coord.: r, theta, phi [deg] :     0.688872   45.110916   52.986419

 ==============================================================================

     total cpu time spent up to now is        6.9 secs

     total energy              =     -55.54032752 Ry
     Harris-Foulkes estimate   =     -55.54558147 Ry
     estimated scf accuracy    <       0.00222699 Ry

     total magnetization       =     0.22     0.30     0.38 Bohr mag/cell
     absolute magnetization    =     0.60 Bohr mag/cell
     Magnetic field            =   0.0063792   0.0103130   0.0139939 Ry
     lambda                    =       0.50 Ry

     iteration # 18     ecut=    25.00 Ry     beta=0.30
     Davidson diagonalization with overlap
     ethr =  2.78E-05,  avg # of iterations =  1.0
      External magnetic field:       0.00148      0.00197      0.00198

 ==============================================================================
     atom number    1 relative position :    0.0000   0.0000   0.0000
     charge :     6.425391
     magnetization :          0.299755    0.399398    0.499879
     magnetization/charge:    0.046652    0.062159    0.077797
     polar coord.: r, theta, phi [deg] :     0.706577   44.970860   53.111180

 ==============================================================================

     total cpu time spent up to now is        7.2 secs

     total energy              =     -55.54506375 Ry
     Harris-Foulkes estimate   =     -55.55663600 Ry
     estimated scf accuracy    <       0.01920956 Ry

     total magnetization       =     0.59     0.84     1.08 Bohr mag/cell
     absolute magnetization    =     1.49 Bohr mag/cell
     Magnetic field            =   0.0014761   0.0019658   0.0019780 Ry
     lambda                    =       0.50 Ry

     iteration # 19     ecut=    25.00 Ry     beta=0.30
     Davidson diagonalization with overlap
     ethr =  2.78E-05,  avg # of iterations =  1.0
      External magnetic field:      -0.02857     -0.03772     -0.04681

 ==============================================================================
     atom number    1 relative position :    0.0000   0.0000   0.0000
     charge :     6.413187
     magnetization :          0.356104    0.474150    0.592443
     magnetization/charge:    0.055527    0.073934    0.092379
     polar coord.: r, theta, phi [deg] :     0.838223   45.026050   53.092077

 ==============================================================================

     total cpu time spent up to now is        7.5 secs

     total energy              =     -55.52481910 Ry
     Harris-Foulkes estimate   =     -55.54775488 Ry
     estimated scf accuracy    <       0.00679411 Ry

     total magnetization       =     0.47     0.63     0.77 Bohr mag/cell
     absolute magnetization    =     1.12 Bohr mag/cell
     Magnetic field            =  -0.0285672  -0.0377213  -0.0468136 Ry
     lambda                    =       0.50 Ry

     iteration # 20     ecut=    25.00 Ry     beta=0.30
     Davidson diagonalization with overlap
     ethr =  2.78E-05,  avg # of iterations =  2.2
      External magnetic field:      -0.02963     -0.03924     -0.04842

 ==============================================================================
     atom number    1 relative position :    0.0000   0.0000   0.0000
     charge :     6.418736
     magnetization :          0.340329    0.453121    0.565467
     magnetization/charge:    0.053021    0.070594    0.088096
     polar coord.: r, theta, phi [deg] :     0.800560   45.062139   53.090643

 ==============================================================================

     total cpu time spent up to now is        7.8 secs

     total energy              =     -55.60526416 Ry
     Harris-Foulkes estimate   =     -55.59559497 Ry
     estimated scf accuracy    <       0.10521979 Ry

     total magnetization       =    -0.50    -0.65    -0.80 Bohr mag/cell
     absolute magnetization    =     1.14 Bohr mag/cell
     Magnetic field            =  -0.0296296  -0.0392385  -0.0484183 Ry
     lambda                    =       0.50 Ry

     iteration # 21     ecut=    25.00 Ry     beta=0.30
     Davidson diagonalization with overlap
     ethr =  2.78E-05,  avg # of iterations =  1.1
      External magnetic field:      -0.03644     -0.04718     -0.05923

 ==============================================================================
     atom number    1 relative position :    0.0000   0.0000   0.0000
     charge :     6.421473
     magnetization :          0.349892    0.464744    0.580733
     magnetization/charge:    0.054488    0.072373    0.090436
     polar coord.: r, theta, phi [deg] :     0.821987   45.049204   53.024984

 ==============================================================================

     total cpu time spent up to now is        8.1 secs

     total energy              =     -55.63590964 Ry
     Harris-Foulkes estimate   =     -55.60575791 Ry
     estimated scf accuracy    <       0.11393531 Ry

     total magnetization       =    -0.56    -0.73    -0.89 Bohr mag/cell
     absolute magnetization    =     1.28 Bohr mag/cell
     Magnetic field            =  -0.0364387  -0.0471837  -0.0592254 Ry
     lambda                    =       0.50 Ry

     iteration # 22     ecut=    25.00 Ry     beta=0.30
     Davidson diagonalization with overlap
     ethr =  2.78E-05,  avg # of iterations =  1.0
      External magnetic field:      -0.01422     -0.01891     -0.02279

 ==============================================================================
     atom number    1 relative position :    0.0000   0.0000   0.0000
     charge :     6.411895
     magnetization :          0.328150    0.437050    0.545191
     magnetization/charge:    0.051178    0.068162    0.085028
     polar coord.: r, theta, phi [deg] :     0.771964   45.070283   53.099753

 ==============================================================================

     total cpu time spent up to now is        8.4 secs

     total energy              =     -55.51955867 Ry
     Harris-Foulkes estimate   =     -55.63839022 Ry
     estimated scf accuracy    <       0.15637239 Ry

     total magnetization       =    -0.71    -0.90    -1.13 Bohr mag/cell
     absolute magnetization    =     1.61 Bohr mag/cell
     Magnetic field            =  -0.0142202  -0.0189118  -0.0227850 Ry
     lambda                    =       0.50 Ry

     iteration # 23     ecut=    25.00 Ry     beta=0.30
     Davidson diagonalization with overlap
     ethr =  2.78E-05,  avg # of iterations =  1.0
      External magnetic field:      -0.01459     -0.01775     -0.02323

 ==============================================================================
     atom number    1 relative position :    0.0000   0.0000   0.0000
     charge :     6.411733
     magnetization :          0.329210    0.436949    0.546976
     magnetization/charge:    0.051345    0.068148    0.085309
     polar coord.: r, theta, phi [deg] :     0.773619   45.005779   53.004582

 ==============================================================================

     total cpu time spent up to now is        8.7 secs

     total energy              =     -55.55284542 Ry
     Harris-Foulkes estimate   =     -55.55318784 Ry
     estimated scf accuracy    <       0.01766375 Ry

     total magnetization       =    -0.04    -0.05    -0.03 Bohr mag/cell
     absolute magnetization    =     0.17 Bohr mag/cell
     Magnetic field            =  -0.0145918  -0.0177542  -0.0232303 Ry
     lambda                    =       0.50 Ry

     iteration # 24     ecut=    25.00 Ry     beta=0.30
     Davidson diagonalization with overlap
     ethr =  2.78E-05,  avg # of iterations =  1.0
      External magnetic field:      -0.01198     -0.01685     -0.01963

 ==============================================================================
     atom number    1 relative position :    0.0000   0.0000   0.0000
     charge :     6.412954
     magnetization :          0.320124    0.427357    0.532439
     magnetization/charge:    0.049918    0.066640    0.083026
     polar coord.: r, theta, phi [deg] :     0.754059   45.081695   53.163857

 ==============================================================================

     total cpu time spent up to now is        9.0 secs

     total energy              =     -55.55022490 Ry
     Harris-Foulkes estimate   =     -55.55288837 Ry
     estimated scf accuracy    <       0.01726370 Ry

     total magnetization       =    -0.05     0.00    -0.04 Bohr mag/cell
     absolute magnetization    =     0.18 Bohr mag/cell
     Magnetic field            =  -0.0119779  -0.0168498  -0.0196312 Ry
     lambda                    =       0.50 Ry

     iteration # 25     ecut=    25.00 Ry     beta=0.30
     Davidson diagonalization with overlap
     ethr =  2.78E-05,  avg # of iterations =  1.0
      External magnetic field:      -0.00424     -0.00574     -0.00719

 ==============================================================================
     atom number    1 relative position :    0.0000   0.0000   0.0000
     charge :     6.410525
     magnetization :          0.313430    0.417809    0.522152
     magnetization/charge:    0.048893    0.065176    0.081452
     polar coord.: r, theta, phi [deg] :     0.738543   45.008415   53.123669

 ==============================================================================

     total cpu time spent up to now is        9.3 secs

     total energy              =     -55.53875443 Ry
     Harris-Foulkes estimate   =     -55.55049863 Ry
     estimated scf accuracy    <       0.01159586 Ry

     total magnetization       =     0.04     0.02     0.08 Bohr mag/cell
     absolute magnetization    =     0.23 Bohr mag/cell
     Magnetic field            =  -0.0042426  -0.0057441  -0.0071921 Ry
     lambda                    =       0.50 Ry

     iteration # 26     ecut=    25.00 Ry     beta=0.30
     Davidson diagonalization with overlap
     ethr =  2.78E-05,  avg # of iterations =  1.0
      External magnetic field:      -0.00280     -0.00367     -0.00429

 ==============================================================================
     atom number    1 relative position :    0.0000   0.0000   0.0000
     charge :     6.409993
     magnetization :          0.310374    0.413538    0.516505
     magnetization/charge:    0.048420    0.064515    0.080578
     polar coord.: r, theta, phi [deg] :     0.730837   45.030484   53.110578

 ==============================================================================

     total cpu time spent up to now is        9.6 secs

     total energy              =     -55.54492147 Ry
     Harris-Foulkes estimate   =     -55.54481582 Ry
     estimated scf accuracy    <       0.00033690 Ry

     total magnetization       =     0.32     0.43     0.53 Bohr mag/cell
     absolute magnetization    =     0.80 Bohr mag/cell
     Magnetic field            =  -0.0028044  -0.0036674  -0.0042948 Ry
     lambda                    =       0.50 Ry

     iteration # 27     ecut=    25.00 Ry     beta=0.30
     Davidson diagonalization with overlap
     ethr =  4.21E-06,  avg # of iterations =  1.0
      External magnetic field:      -0.00237     -0.00309     -0.00353

 ==============================================================================
     atom number    1 relative position :    0.0000   0.0000   0.0000
     charge :     6.409794
     magnetization :          0.310377    0.413548    0.516463
     magnetization/charge:    0.048422    0.064518    0.080574
     polar coord.: r, theta, phi [deg] :     0.730814   45.033393   53.110922

 ==============================================================================

     total cpu time spent up to now is        9.8 secs

     total energy              =     -55.54532604 Ry
     Harris-Foulkes estimate   =     -55.54512893 Ry
     estimated scf accuracy    <       0.00087900 Ry

     total magnetization       =     0.37     0.49     0.62 Bohr mag/cell
     absolute magnetization    =     0.90 Bohr mag/cell
     Magnetic field            =  -0.0023707  -0.0030881  -0.0035331 Ry
     lambda                    =       0.50 Ry

     iteration # 28     ecut=    25.00 Ry     beta=0.30
     Davidson diagonalization with overlap
     ethr =  4.21E-06,  avg # of iterations =  1.0
      External magnetic field:      -0.00421     -0.00535     -0.00644

 ==============================================================================
     atom number    1 relative position :    0.0000   0.0000   0.0000
     charge :     6.410913
     magnetization :          0.311405    0.414757    0.518196
     magnetization/charge:    0.048574    0.064696    0.080830
     polar coord.: r, theta, phi [deg] :     0.733160   45.024988   53.100362

 ==============================================================================

     total cpu time spent up to now is       10.1 secs

     total energy              =     -55.54449554 Ry
     Harris-Foulkes estimate   =     -55.54534591 Ry
     estimated scf accuracy    <       0.00131005 Ry

     total magnetization       =     0.38     0.51     0.65 Bohr mag/cell
     absolute magnetization    =     0.94 Bohr mag/cell
     Magnetic field            =  -0.0042133  -0.0053474  -0.0064371 Ry
     lambda                    =       0.50 Ry

     iteration # 29     ecut=    25.00 Ry     beta=0.30
     Davidson diagonalization with overlap
     ethr =  4.21E-06,  avg # of iterations =  1.0
      External magnetic field:      -0.00580     -0.00752     -0.00963

 ==============================================================================
     atom number    1 relative position :    0.0000   0.0000   0.0000
     charge :     6.412236
     magnetization :          0.313938    0.418303    0.523212
     magnetization/charge:    0.048959    0.065235    0.081596
     polar coord.: r, theta, phi [deg] :     0.739787   44.988652   53.111681

 ==============================================================================

     total cpu time spent up to now is       10.4 secs

     total energy              =     -55.54466327 Ry
     Harris-Foulkes estimate   =     -55.54480382 Ry
     estimated scf accuracy    <       0.00008072 Ry

     total magnetization       =     0.32     0.43     0.55 Bohr mag/cell
     absolute magnetization    =     0.80 Bohr mag/cell
     Magnetic field            =  -0.0058014  -0.0075188  -0.0096251 Ry
     lambda                    =       0.50 Ry

     iteration # 30     ecut=    25.00 Ry     beta=0.30
     Davidson diagonalization with overlap
     ethr =  1.01E-06,  avg # of iterations =  1.0
      External magnetic field:      -0.00437     -0.00578     -0.00725

 ==============================================================================
     atom number    1 relative position :    0.0000   0.0000   0.0000
     charge :     6.412179
     magnetization :          0.311849    0.415735    0.519746
     magnetization/charge:    0.048634    0.064835    0.081056
     polar coord.: r, theta, phi [deg] :     0.734997   44.997328   53.125917

 ==============================================================================

     total cpu time spent up to now is       10.7 secs

     total energy              =     -55.54461351 Ry
     Harris-Foulkes estimate   =     -55.54494747 Ry
     estimated scf accuracy    <       0.00027387 Ry

     total magnetization       =     0.26     0.36     0.44 Bohr mag/cell
     absolute magnetization    =     0.68 Bohr mag/cell
     Magnetic field            =  -0.0043745  -0.0057830  -0.0072538 Ry
     lambda                    =       0.50 Ry

     iteration # 31     ecut=    25.00 Ry     beta=0.30
     Davidson diagonalization with overlap
     ethr =  1.01E-06,  avg # of iterations =  1.0
      External magnetic field:      -0.00447     -0.00596     -0.00746

 ==============================================================================
     atom number    1 relative position :    0.0000   0.0000   0.0000
     charge :     6.412251
     magnetization :          0.312119    0.416150    0.520249
     magnetization/charge:    0.048675    0.064899    0.081134
     polar coord.: r, theta, phi [deg] :     0.735702   44.996809   53.129563

 ==============================================================================

     total cpu time spent up to now is       11.0 secs

     total energy              =     -55.54478092 Ry
     Harris-Foulkes estimate   =     -55.54478117 Ry
     estimated scf accuracy    <       0.00000639 Ry

     total magnetization       =     0.31     0.41     0.52 Bohr mag/cell
     absolute magnetization    =     0.77 Bohr mag/cell
     Magnetic field            =  -0.0044722  -0.0059581  -0.0074612 Ry
     lambda                    =       0.50 Ry

     iteration # 32     ecut=    25.00 Ry     beta=0.30
     Davidson diagonalization with overlap
     ethr =  7.99E-08,  avg # of iterations =  1.0
      External magnetic field:      -0.00466     -0.00621     -0.00779

 ==============================================================================
     atom number    1 relative position :    0.0000   0.0000   0.0000
     charge :     6.412177
     magnetization :          0.312568    0.416757    0.521001
     magnetization/charge:    0.048746    0.064995    0.081252
     polar coord.: r, theta, phi [deg] :     0.736768   44.997033   53.130107

 ==============================================================================

     total cpu time spent up to now is       11.3 secs

     total energy              =     -55.54478506 Ry
     Harris-Foulkes estimate   =     -55.54478212 Ry
     estimated scf accuracy    <       0.00000098 Ry

     total magnetization       =     0.31     0.41     0.51 Bohr mag/cell
     absolute magnetization    =     0.77 Bohr mag/cell
     Magnetic field            =  -0.0046607  -0.0062086  -0.0077873 Ry
     lambda                    =       0.50 Ry

     iteration # 33     ecut=    25.00 Ry     beta=0.30
     Davidson diagonalization with overlap
     ethr =  1.23E-08,  avg # of iterations =  1.1
      External magnetic field:      -0.00457     -0.00604     -0.00758

 ==============================================================================
     atom number    1 relative position :    0.0000   0.0000   0.0000
     charge :     6.412164
     magnetization :          0.312358    0.416433    0.520593
     magnetization/charge:    0.048713    0.064944    0.081188
     polar coord.: r, theta, phi [deg] :     0.736207   44.998217   53.127199

 ==============================================================================

     total cpu time spent up to now is       11.5 secs

     total energy              =     -55.54478282 Ry
     Harris-Foulkes estimate   =     -55.54478790 Ry
     estimated scf accuracy    <       0.00000232 Ry

     total magnetization       =     0.30     0.40     0.50 Bohr mag/cell
     absolute magnetization    =     0.75 Bohr mag/cell
     Magnetic field            =  -0.0045680  -0.0060430  -0.0075845 Ry
     lambda                    =       0.50 Ry

     iteration # 34     ecut=    25.00 Ry     beta=0.30
     Davidson diagonalization with overlap
     ethr =  1.23E-08,  avg # of iterations =  1.0
      External magnetic field:      -0.00455     -0.00606     -0.00759

 ==============================================================================
     atom number    1 relative position :    0.0000   0.0000   0.0000
     charge :     6.412155
     magnetization :          0.312349    0.416466    0.520610
     magnetization/charge:    0.048712    0.064949    0.081191
     polar coord.: r, theta, phi [deg] :     0.736234   44.998461   53.130185

 ==============================================================================

     total cpu time spent up to now is       11.8 secs

     total energy              =     -55.54478398 Ry
     Harris-Foulkes estimate   =     -55.54478391 Ry
     estimated scf accuracy    <       0.00000005 Ry

     total magnetization       =     0.30     0.41     0.51 Bohr mag/cell
     absolute magnetization    =     0.76 Bohr mag/cell
     Magnetic field            =  -0.0045481  -0.0060577  -0.0075891 Ry
     lambda                    =       0.50 Ry

     iteration # 35     ecut=    25.00 Ry     beta=0.30
     Davidson diagonalization with overlap
     ethr =  6.09E-10,  avg # of iterations =  3.0
      External magnetic field:      -0.00457     -0.00608     -0.00761

 ==============================================================================
     atom number    1 relative position :    0.0000   0.0000   0.0000
     charge :     6.412152
     magnetization :          0.312376    0.416496    0.520634
     magnetization/charge:    0.048716    0.064954    0.081195
     polar coord.: r, theta, phi [deg] :     0.736280   44.999346   53.129715

 ==============================================================================

     total cpu time spent up to now is       12.2 secs

     total energy              =     -55.54478436 Ry
     Harris-Foulkes estimate   =     -55.54478400 Ry
     estimated scf accuracy    <       0.00000001 Ry

     total magnetization       =     0.30     0.41     0.51 Bohr mag/cell
     absolute magnetization    =     0.76 Bohr mag/cell
     Magnetic field            =  -0.0045656  -0.0060774  -0.0076063 Ry
     lambda                    =       0.50 Ry

     iteration # 36     ecut=    25.00 Ry     beta=0.30
     Davidson diagonalization with overlap
     ethr =  1.71E-10,  avg # of iterations =  2.5
      External magnetic field:      -0.00456     -0.00608     -0.00760

 ==============================================================================
     atom number    1 relative position :    0.0000   0.0000   0.0000
     charge :     6.412142
     magnetization :          0.312358    0.416476    0.520593
     magnetization/charge:    0.048714    0.064951    0.081189
     polar coord.: r, theta, phi [deg] :     0.736231   45.000117   53.129998

 ==============================================================================

     total cpu time spent up to now is       12.6 secs

     total energy              =     -55.54478429 Ry
     Harris-Foulkes estimate   =     -55.54478437 Ry
     estimated scf accuracy    <       0.00000003 Ry

     total magnetization       =     0.30     0.41     0.51 Bohr mag/cell
     absolute magnetization    =     0.76 Bohr mag/cell
     Magnetic field            =  -0.0045599  -0.0060779  -0.0075981 Ry
     lambda                    =       0.50 Ry

     iteration # 37     ecut=    25.00 Ry     beta=0.30
     Davidson diagonalization with overlap
     ethr =  1.71E-10,  avg # of iterations =  1.0
      External magnetic field:      -0.00456     -0.00608     -0.00759

 ==============================================================================
     atom number    1 relative position :    0.0000   0.0000   0.0000
     charge :     6.412140
     magnetization :          0.312357    0.416476    0.520585
     magnetization/charge:    0.048713    0.064951    0.081187
     polar coord.: r, theta, phi [deg] :     0.736225   45.000516   53.130069

 ==============================================================================

     total cpu time spent up to now is       12.8 secs

     total energy              =     -55.54478429 Ry
     Harris-Foulkes estimate   =     -55.54478429 Ry
     estimated scf accuracy    <       0.00000002 Ry

     total magnetization       =     0.30     0.41     0.51 Bohr mag/cell
     absolute magnetization    =     0.76 Bohr mag/cell
     Magnetic field            =  -0.0045610  -0.0060810  -0.0075939 Ry
     lambda                    =       0.50 Ry

     iteration # 38     ecut=    25.00 Ry     beta=0.30
     Davidson diagonalization with overlap
     ethr =  1.71E-10,  avg # of iterations =  1.0
      External magnetic field:      -0.00455     -0.00607     -0.00759

 ==============================================================================
     atom number    1 relative position :    0.0000   0.0000   0.0000
     charge :     6.412143
     magnetization :          0.312335    0.416448    0.520559
     magnetization/charge:    0.048710    0.064947    0.081183
     polar coord.: r, theta, phi [deg] :     0.736182   44.999967   53.130201

 ==============================================================================

     total cpu time spent up to now is       13.1 secs

     total energy              =     -55.54478415 Ry
     Harris-Foulkes estimate   =     -55.54478429 Ry
     estimated scf accuracy    <       0.00000002 Ry

     total magnetization       =     0.30     0.41     0.51 Bohr mag/cell
     absolute magnetization    =     0.76 Bohr mag/cell
     Magnetic field            =  -0.0045533  -0.0060705  -0.0075885 Ry
     lambda                    =       0.50 Ry

     iteration # 39     ecut=    25.00 Ry     beta=0.30
     Davidson diagonalization with overlap
     ethr =  1.71E-10,  avg # of iterations =  1.0
      External magnetic field:      -0.00455     -0.00607     -0.00758

 ==============================================================================
     atom number    1 relative position :    0.0000   0.0000   0.0000
     charge :     6.412145
     magnetization :          0.312326    0.416437    0.520544
     magnetization/charge:    0.048709    0.064945    0.081181
     polar coord.: r, theta, phi [deg] :     0.736162   45.000042   53.130203

 ==============================================================================

     total cpu time spent up to now is       13.4 secs

     total energy              =     -55.54478406 Ry
     Harris-Foulkes estimate   =     -55.54478415 Ry
     estimated scf accuracy    <          2.9E-09 Ry

     total magnetization       =     0.30     0.41     0.51 Bohr mag/cell
     absolute magnetization    =     0.76 Bohr mag/cell
     Magnetic field            =  -0.0045499  -0.0060664  -0.0075826 Ry
     lambda                    =       0.50 Ry

     iteration # 40     ecut=    25.00 Ry     beta=0.30
     Davidson diagonalization with overlap
     ethr =  3.65E-11,  avg # of iterations =  1.0
      External magnetic field:      -0.00452     -0.00603     -0.00755

 ==============================================================================
     atom number    1 relative position :    0.0000   0.0000   0.0000
     charge :     6.412148
     magnetization :          0.312301    0.416406    0.520519
     magnetization/charge:    0.048705    0.064940    0.081177
     polar coord.: r, theta, phi [deg] :     0.736116   44.999244   53.130487

 ==============================================================================

     total cpu time spent up to now is       13.7 secs

     End of self-consistent calculation

          k = 0.0000 0.0000 0.2500 (   148 PWs)   bands (ev):

     7.0426   7.2420  12.7594  12.7594  13.0873  13.0873  13.1315  13.4838
    13.7020  14.2562  14.6495  15.2721  36.1708  36.3037  38.6302  38.6302

          k = 0.0000-0.2500 0.5000 (   151 PWs)   bands (ev):

    10.0424  10.1070  12.0741  12.3670  12.4514  12.7149  14.0060  14.4646
    15.2626  15.6865  15.9319  16.3128  26.5052  26.5553  33.9091  34.1124

          k =-0.2500 0.2500 0.2500 (   159 PWs)   bands (ev):

     9.2500   9.4066  11.8379  11.8379  12.1231  12.1231  14.3919  14.3919
    14.9862  14.9862  15.4336  15.7934  31.7725  31.7725  31.8291  31.8291

          k =-0.2500 0.7500-0.2500 (   146 PWs)   bands (ev):

    11.3565  11.3565  11.6389  11.6389  11.8381  12.0833  14.8006  14.8006
    15.2400  15.2400  22.6998  22.6998  22.7908  22.7908  25.2067  25.2215

          k = 0.5000-0.5000 0.2500 (   150 PWs)   bands (ev):

    10.5873  10.7503  11.3660  11.6097  12.9468  13.0622  14.5329  14.6519
    15.1120  15.2881  19.4975  19.6164  23.3528  23.4707  29.5318  29.5952

          k = 0.0000 0.0000 0.7500 (   144 PWs)   bands (ev):

    10.4085  10.5101  10.6722  10.8527  14.5280  14.5280  14.8951  14.8951
    15.1233  15.5460  20.2841  20.3238  27.6811  27.6811  27.7979  27.7979

          k = 0.2500 0.0000 0.0000 (   148 PWs)   bands (ev):

     7.0426   7.2420  12.7594  12.7594  13.0873  13.0873  13.1315  13.4838
    13.7020  14.2562  14.6495  15.2721  36.1708  36.3037  38.6301  38.6302

          k = 0.0000 0.2500 0.0000 (   148 PWs)   bands (ev):

     7.0426   7.2420  12.7594  12.7594  13.0873  13.0873  13.1315  13.4838
    13.7020  14.2562  14.6495  15.2721  36.1708  36.3037  38.6301  38.6301

          k = 0.0000-0.2500-0.5000 (   151 PWs)   bands (ev):

    10.0424  10.1070  12.0741  12.3670  12.4514  12.7149  14.0060  14.4646
    15.2626  15.6865  15.9319  16.3128  26.5052  26.5553  33.9090  34.1124

          k =-0.2500 0.0000-0.5000 (   151 PWs)   bands (ev):

    10.0424  10.1070  12.0741  12.3670  12.4514  12.7149  14.0060  14.4646
    15.2626  15.6865  15.9319  16.3128  26.5052  26.5553  33.9090  34.1124

          k = 0.2500 0.0000-0.5000 (   151 PWs)   bands (ev):

    10.0424  10.1070  12.0741  12.3670  12.4514  12.7149  14.0060  14.4646
    15.2626  15.6865  15.9319  16.3128  26.5052  26.5553  34.0430  34.1966

          k = 0.5000 0.2500 0.0000 (   151 PWs)   bands (ev):

    10.0424  10.1070  12.0741  12.3670  12.4514  12.7149  14.0060  14.4646
    15.2626  15.6865  15.9319  16.3128  26.5052  26.5553  34.0432  34.1967

          k =-0.5000 0.2500 0.0000 (   151 PWs)   bands (ev):

    10.0424  10.1070  12.0741  12.3670  12.4514  12.7149  14.0060  14.4646
    15.2626  15.6865  15.9319  16.3128  26.5052  26.5553  34.0434  34.1967

          k = 0.0000 0.5000-0.2500 (   151 PWs)   bands (ev):

    10.0424  10.1070  12.0741  12.3670  12.4514  12.7149  14.0060  14.4646
    15.2626  15.6865  15.9319  16.3128  26.5052  26.5553  33.9090  34.0436

          k = 0.0000 0.5000 0.2500 (   151 PWs)   bands (ev):

    10.0424  10.1070  12.0741  12.3670  12.4514  12.7149  14.0060  14.4646
    15.2626  15.6865  15.9319  16.3128  26.5052  26.5553  33.9090  34.1124

          k =-0.2500 0.5000 0.0000 (   151 PWs)   bands (ev):

    10.0424  10.1070  12.0741  12.3670  12.4514  12.7149  14.0060  14.4646
    15.2626  15.6865  15.9319  16.3128  26.5052  26.5553  33.9090  34.0436

          k = 0.2500 0.5000 0.0000 (   151 PWs)   bands (ev):

    10.0424  10.1070  12.0741  12.3670  12.4514  12.7149  14.0060  14.4646
    15.2626  15.6865  15.9319  16.3128  26.5052  26.5553  33.9091  34.1124

          k = 0.5000 0.0000-0.2500 (   151 PWs)   bands (ev):

    10.0424  10.1070  12.0741  12.3670  12.4514  12.7149  14.0060  14.4646
    15.2626  15.6865  15.9319  16.3128  26.5052  26.5553  33.9090  34.0438

          k = 0.5000 0.0000 0.2500 (   151 PWs)   bands (ev):

    10.0424  10.1070  12.0741  12.3670  12.4514  12.7149  14.0060  14.4646
    15.2626  15.6865  15.9319  16.3128  26.5052  26.5553  33.9090  34.0435

          k = 0.2500 0.2500-0.2500 (   159 PWs)   bands (ev):

     9.2500   9.4066  11.8379  11.8379  12.1231  12.1231  14.3919  14.3919
    14.9862  14.9862  15.4336  15.7934  31.7725  31.7725  31.8291  31.8291

          k =-0.2500-0.2500-0.2500 (   159 PWs)   bands (ev):

     9.2500   9.4066  11.8379  11.8379  12.1231  12.1231  14.3919  14.3919
    14.9862  14.9862  15.4336  15.7934  31.7725  31.7725  31.8291  31.8291

          k =-0.2500 0.2500-0.2500 (   159 PWs)   bands (ev):

     9.2500   9.4066  11.8379  11.8380  12.1231  12.1231  14.3919  14.3919
    14.9862  14.9862  15.4336  15.7934  31.7725  31.7725  31.8291  31.8291

          k = 0.2500 0.7500 0.2500 (   146 PWs)   bands (ev):

    11.3565  11.3565  11.6389  11.6389  11.8381  12.0833  14.8006  14.8006
    15.2400  15.2400  22.6998  22.6998  22.7908  22.7908  25.2067  25.2215

          k =-0.2500-0.7500 0.2500 (   146 PWs)   bands (ev):

    11.3565  11.3565  11.6389  11.6389  11.8381  12.0833  14.8006  14.8006
    15.2400  15.2401  22.6998  22.6998  22.7908  22.7908  25.2067  25.2215

          k = 0.7500-0.2500 0.2500 (   146 PWs)   bands (ev):

    11.3565  11.3565  11.6389  11.6389  11.8381  12.0833  14.8006  14.8006
    15.2400  15.2400  22.6998  22.6998  22.7908  22.7908  25.2067  25.2215

          k =-0.5000-0.5000-0.2500 (   150 PWs)   bands (ev):

    10.5873  10.7503  11.3660  11.6097  12.9468  13.0622  14.5329  14.6519
    15.1120  15.2881  19.4975  19.6164  23.3528  23.4707  29.5318  29.5952

          k = 0.2500 0.5000 0.5000 (   150 PWs)   bands (ev):

    10.5873  10.7503  11.3660  11.6097  12.9468  13.0622  14.5329  14.6519
    15.1120  15.2881  19.4975  19.6164  23.3528  23.4707  29.5318  29.5952

          k =-0.2500 0.5000-0.5000 (   150 PWs)   bands (ev):

    10.5873  10.7503  11.3660  11.6097  12.9468  13.0622  14.5329  14.6519
    15.1120  15.2881  19.4975  19.6164  23.3528  23.4707  29.5318  29.5952

          k =-0.5000 0.2500-0.5000 (   150 PWs)   bands (ev):

    10.5873  10.7503  11.3660  11.6097  12.9468  13.0622  14.5329  14.6519
    15.1121  15.2881  19.4975  19.6164  23.3528  23.4707  29.5318  29.5952

          k =-0.5000-0.2500 0.5000 (   150 PWs)   bands (ev):

    10.5873  10.7503  11.3660  11.6097  12.9468  13.0622  14.5329  14.6519
    15.1120  15.2881  19.4975  19.6164  23.3528  23.4707  29.5318  29.5952

          k = 0.7500 0.0000 0.0000 (   144 PWs)   bands (ev):

    10.4085  10.5101  10.6722  10.8527  14.5280  14.5280  14.8951  14.8951
    15.1233  15.5460  20.2841  20.3238  27.6811  27.6811  27.7979  27.7979

          k = 0.0000 0.7500 0.0000 (   144 PWs)   bands (ev):

    10.4085  10.5101  10.6722  10.8527  14.5280  14.5280  14.8951  14.8951
    15.1233  15.5460  20.2841  20.3238  27.6811  27.6811  27.7979  27.7979

     the Fermi energy is    14.8545 ev

!    total energy              =     -55.54478347 Ry
     Harris-Foulkes estimate   =     -55.54478406 Ry
     estimated scf accuracy    <          9.6E-11 Ry

     The total energy is the sum of the following terms:

     one-electron contribution =       8.97515319 Ry
     hartree contribution      =       6.03001475 Ry
     xc contribution           =     -25.89293801 Ry
     ewald contribution        =     -44.64461207 Ry
     smearing contrib. (-TS)   =      -0.01240133 Ry

     total magnetization       =     0.30     0.41     0.51 Bohr mag/cell
     absolute magnetization    =     0.76 Bohr mag/cell
     Magnetic field            =  -0.0045187  -0.0060309  -0.0075506 Ry
     lambda                    =       0.50 Ry

     convergence has been achieved in  40 iterations

     Writing output data file fe.save
 
     init_run     :      0.28s CPU      0.30s WALL (       1 calls)
     electrons    :     12.98s CPU     13.36s WALL (       1 calls)

     Called by init_run:
     wfcinit      :      0.09s CPU      0.09s WALL (       1 calls)
     potinit      :      0.00s CPU      0.01s WALL (       1 calls)

     Called by electrons:
     c_bands      :     10.05s CPU     10.34s WALL (      40 calls)
     sum_band     :      2.57s CPU      2.65s WALL (      40 calls)
     v_of_rho     :      0.09s CPU      0.09s WALL (      41 calls)
     newd         :      0.16s CPU      0.17s WALL (      41 calls)
     mix_rho      :      0.07s CPU      0.07s WALL (      40 calls)

     Called by c_bands:
     init_us_2    :      0.10s CPU      0.09s WALL (    2592 calls)
     cegterg      :      9.49s CPU      9.81s WALL (    1280 calls)

     Called by sum_band:
     sum_band:bec :      0.03s CPU      0.04s WALL (    1280 calls)
     addusdens    :      0.65s CPU      0.66s WALL (      40 calls)

     Called by *egterg:
     h_psi        :      6.67s CPU      6.87s WALL (    3701 calls)
     s_psi        :      0.17s CPU      0.17s WALL (    3701 calls)
     g_psi        :      0.06s CPU      0.05s WALL (    2389 calls)
     cdiaghg      :      1.91s CPU      1.92s WALL (    3669 calls)

     Called by h_psi:
     add_vuspsi   :      0.21s CPU      0.21s WALL (    3701 calls)

     General routines
     calbec       :      0.26s CPU      0.23s WALL (    4981 calls)
     fft          :      0.15s CPU      0.16s WALL (    1331 calls)
     ffts         :      0.01s CPU      0.01s WALL (     324 calls)
     fftw         :      5.88s CPU      6.12s WALL (  225956 calls)
     interpolate  :      0.05s CPU      0.05s WALL (     324 calls)
 
     Parallel routines
     fft_scatter  :      1.49s CPU      1.73s WALL (  227611 calls)
 
     PWSCF        :    13.41s CPU        13.82s WALL

 
   This run was terminated on:  15:35:45  21Jul2016            

=------------------------------------------------------------------------------=
   JOB DONE.
=------------------------------------------------------------------------------=
