
     Program PWSCF v.5.4.0 (svn rev. 12496M) starts on 15Jun2016 at 11:21:27 

     This program is part of the open-source Quantum ESPRESSO suite
     for quantum simulation of materials; please cite
         "P. Giannozzi et al., J. Phys.:Condens. Matter 21 395502 (2009);
          URL http://www.quantum-espresso.org", 
     in publications or presentations arising from this work. More details at
     http://www.quantum-espresso.org/quote
 
           HOST :    @host@
           ARCH :    x86_64
             CC :    cc
            CPP :    cpp
            F90 :    mpif90
            F77 :    gfortran
         DFLAGS :    -D__GFORTRAN -D__STD_F95 -D__DFTI -D__MPI -D__PARA
      BLAS LIBS :    -lmkl_gf_lp64  -lmkl_sequential -lmkl_core
    LAPACK LIBS :    
       FFT LIBS :    
      MASS LIBS :    

     Parallel version (MPI), running on     2 processors
     R & G space division:  proc/nbgrp/npool/nimage =       2
     Waiting for input...
     Reading input from standard input
     Message from routine read_cards :
     DEPRECATED: no units specified in ATOMIC_POSITIONS card
     Message from routine read_cards :
     ATOMIC_POSITIONS: units set to alat

     Current dimensions of program PWSCF are:
     Max number of different atomic species (ntypx) = 10
     Max number of k-points (npk) =  40000
     Max angular momentum in pseudopotentials (lmaxx) =  3
               file Ni.pbe-nd-rrkjus.UPF: wavefunction(s)  4S renormalized

     Fixed quantization axis for GGA:     1.000000    0.000000    0.000000

     Subspace diagonalization in iterative solution of the eigenvalue problem:
     a serial algorithm will be used

 
     Parallelization info
     --------------------
     sticks:   dense  smooth     PW     G-vecs:    dense   smooth      PW
     Min         210      69     27                 2799      531     129
     Max         211      70     28                 2802      536     130
     Sum         421     139     55                 5601     1067     259
 
     Generating pointlists ...
     new r_m :   0.2917 (alat units)  1.8901 (a.u.) for type    1


     bravais-lattice index     =            2
     lattice parameter (alat)  =       6.4800  a.u.
     unit-cell volume          =      68.0244 (a.u.)^3
     number of atoms/cell      =            1
     number of atomic types    =            1
     number of electrons       =        10.00
     number of Kohn-Sham states=           18
     kinetic-energy cutoff     =      24.0000  Ry
     charge density cutoff     =     288.0000  Ry
     convergence threshold     =      1.0E-08
     mixing beta               =       0.7000
     number of iterations used =            8  plain     mixing
     Exchange-correlation      =  SLA  PW   PBE  PBE ( 1  4  3  4 0 0)
     Noncollinear calculation without spin-orbit


     celldm(1)=   6.480000  celldm(2)=   0.000000  celldm(3)=   0.000000
     celldm(4)=   0.000000  celldm(5)=   0.000000  celldm(6)=   0.000000

     crystal axes: (cart. coord. in units of alat)
               a(1) = (  -0.500000   0.000000   0.500000 )  
               a(2) = (   0.000000   0.500000   0.500000 )  
               a(3) = (  -0.500000   0.500000   0.000000 )  

     reciprocal axes: (cart. coord. in units 2 pi/alat)
               b(1) = ( -1.000000 -1.000000  1.000000 )  
               b(2) = (  1.000000  1.000000  1.000000 )  
               b(3) = ( -1.000000  1.000000 -1.000000 )  


     PseudoPot. # 1 for Ni read from file:
     /home/nvarini/espresso_hdf5/espresso/pseudo/Ni.pbe-nd-rrkjus.UPF
     MD5 check sum: 8081f0a005c9a5470caab1a58e82ecb2
     Pseudo is Ultrasoft + core correction, Zval = 10.0
     Generated by new atomic code, or converted to UPF format
     Using radial grid of 1203 points,  6 beta functions with: 
                l(1) =   0
                l(2) =   0
                l(3) =   1
                l(4) =   1
                l(5) =   2
                l(6) =   2
     Q(r) pseudized with 0 coefficients 


     atomic species   valence    mass     pseudopotential
        Ni            10.00    58.69000     Ni( 1.00)

     16 Sym. Ops., with inversion, found



   Cartesian axes

     site n.     atom                  positions (alat units)
         1           Ni  tau(   1) = (   0.0000000   0.0000000   0.0000000  )

     number of k points=   144  Methfessel-Paxton smearing, width (Ry)=  0.0200

     Number of k-points >= 100: set verbosity='high' to print them.

     Dense  grid:     5601 G-vectors     FFT dimensions: (  25,  25,  25)

     Smooth grid:     1067 G-vectors     FFT dimensions: (  15,  15,  15)

     Largest allocated arrays     est. size (Mb)     dimensions
        Kohn-Sham Wavefunctions         0.04 Mb     (     142,   18)
        NL pseudopotentials             0.02 Mb     (      71,   18)
        Each V/rho on FFT grid          0.12 Mb     (    8125)
        Each G-vector array             0.02 Mb     (    2802)
        G-vector shells                 0.00 Mb     (     104)
     Largest temporary arrays     est. size (Mb)     dimensions
        Auxiliary wavefunctions         0.16 Mb     (     142,   72)
        Each subspace H/S matrix        0.08 Mb     (      72,   72)
        Each <psi_i|beta_j> matrix      0.01 Mb     (      18,   2,   18)
        Arrays for rho mixing           0.99 Mb     (    8125,    8)

     Check: negative/imaginary core charge=   -0.000016    0.000000

     Initial potential from superposition of free atoms

     starting charge    9.99954, renormalised to   10.00000

 ==============================================================================
     atom number    1 relative position :    0.0000   0.0000   0.0000
     charge :     8.865022
     magnetization :          0.886502    0.000000    0.000000
     magnetization/charge:    0.100000    0.000000    0.000000
     polar coord.: r, theta, phi [deg] :     0.886502   90.000000    0.000000

 ==============================================================================
     Starting wfc are   12 randomized atomic wfcs +    6 random wfc

     total cpu time spent up to now is        0.9 secs

     per-process dynamical memory:    11.8 Mb

     Self-consistent Calculation

     iteration #  1     ecut=    24.00 Ry     beta=0.70
     Davidson diagonalization with overlap
     ethr =  1.00E-02,  avg # of iterations =  4.0

     total cpu time spent up to now is        3.5 secs

     total energy              =     -85.73527119 Ry
     Harris-Foulkes estimate   =     -85.96913690 Ry
     estimated scf accuracy    <       0.31643510 Ry

     total magnetization       =     0.81    -0.00    -0.00 Bohr mag/cell
     absolute magnetization    =     0.82 Bohr mag/cell

     iteration #  2     ecut=    24.00 Ry     beta=0.70
     Davidson diagonalization with overlap
     ethr =  3.16E-03,  avg # of iterations =  2.0

     total cpu time spent up to now is        5.3 secs

     total energy              =     -85.80723754 Ry
     Harris-Foulkes estimate   =     -86.01742171 Ry
     estimated scf accuracy    <       0.47175971 Ry

     total magnetization       =     0.49     0.00     0.00 Bohr mag/cell
     absolute magnetization    =     0.54 Bohr mag/cell

     iteration #  3     ecut=    24.00 Ry     beta=0.70
     Davidson diagonalization with overlap
     ethr =  3.16E-03,  avg # of iterations =  1.2

     total cpu time spent up to now is        6.7 secs

     total energy              =     -85.89137996 Ry
     Harris-Foulkes estimate   =     -85.89085632 Ry
     estimated scf accuracy    <       0.00025545 Ry

     total magnetization       =     0.60     0.00    -0.00 Bohr mag/cell
     absolute magnetization    =     0.67 Bohr mag/cell

     iteration #  4     ecut=    24.00 Ry     beta=0.70
     Davidson diagonalization with overlap
     ethr =  2.55E-06,  avg # of iterations =  3.4

     total cpu time spent up to now is        9.3 secs

     total energy              =     -85.89189534 Ry
     Harris-Foulkes estimate   =     -85.89188964 Ry
     estimated scf accuracy    <       0.00003538 Ry

     total magnetization       =     0.58    -0.00     0.00 Bohr mag/cell
     absolute magnetization    =     0.67 Bohr mag/cell

     iteration #  5     ecut=    24.00 Ry     beta=0.70
     Davidson diagonalization with overlap
     ethr =  3.54E-07,  avg # of iterations =  1.0

     total cpu time spent up to now is       10.7 secs

     total energy              =     -85.89190143 Ry
     Harris-Foulkes estimate   =     -85.89189967 Ry
     estimated scf accuracy    <       0.00000295 Ry

     total magnetization       =     0.58    -0.00    -0.00 Bohr mag/cell
     absolute magnetization    =     0.67 Bohr mag/cell

     iteration #  6     ecut=    24.00 Ry     beta=0.70
     Davidson diagonalization with overlap
     ethr =  2.95E-08,  avg # of iterations =  1.8

     total cpu time spent up to now is       12.2 secs

     total energy              =     -85.89190272 Ry
     Harris-Foulkes estimate   =     -85.89190224 Ry
     estimated scf accuracy    <       0.00000017 Ry

     total magnetization       =     0.58     0.00    -0.00 Bohr mag/cell
     absolute magnetization    =     0.68 Bohr mag/cell

     iteration #  7     ecut=    24.00 Ry     beta=0.70
     Davidson diagonalization with overlap
     ethr =  1.68E-09,  avg # of iterations =  1.7

     total cpu time spent up to now is       13.7 secs

     total energy              =     -85.89190272 Ry
     Harris-Foulkes estimate   =     -85.89190275 Ry
     estimated scf accuracy    <       0.00000019 Ry

     total magnetization       =     0.58     0.00    -0.00 Bohr mag/cell
     absolute magnetization    =     0.68 Bohr mag/cell

     iteration #  8     ecut=    24.00 Ry     beta=0.70
     Davidson diagonalization with overlap
     ethr =  1.68E-09,  avg # of iterations =  1.2

 ==============================================================================
     atom number    1 relative position :    0.0000   0.0000   0.0000
     charge :     8.685985
     magnetization :          0.623543    0.000000   -0.000000
     magnetization/charge:    0.071787    0.000000   -0.000000
     polar coord.: r, theta, phi [deg] :     0.623543   90.000000    0.000000

 ==============================================================================

     total cpu time spent up to now is       15.1 secs

     End of self-consistent calculation

     Number of k-points >= 100: set verbosity='high' to print the bands.

     the Fermi energy is    15.7818 ev

!    total energy              =     -85.89190276 Ry
     Harris-Foulkes estimate   =     -85.89190274 Ry
     estimated scf accuracy    <          2.6E-10 Ry

     The total energy is the sum of the following terms:

     one-electron contribution =       0.62074297 Ry
     hartree contribution      =      14.41281132 Ry
     xc contribution           =     -30.17117266 Ry
     ewald contribution        =     -70.75404435 Ry
     smearing contrib. (-TS)   =      -0.00024003 Ry

     total magnetization       =     0.58     0.00    -0.00 Bohr mag/cell
     absolute magnetization    =     0.68 Bohr mag/cell

     convergence has been achieved in   8 iterations

     Writing output data file ni.save
 
     init_run     :      0.78s CPU      0.80s WALL (       1 calls)
     electrons    :     13.88s CPU     14.30s WALL (       1 calls)

     Called by init_run:
     wfcinit      :      0.45s CPU      0.46s WALL (       1 calls)
     potinit      :      0.02s CPU      0.02s WALL (       1 calls)

     Called by electrons:
     c_bands      :     11.51s CPU     11.86s WALL (       8 calls)
     sum_band     :      2.17s CPU      2.24s WALL (       8 calls)
     v_of_rho     :      0.13s CPU      0.13s WALL (       9 calls)
     newd         :      0.06s CPU      0.06s WALL (       9 calls)
     mix_rho      :      0.01s CPU      0.01s WALL (       8 calls)

     Called by c_bands:
     init_us_2    :      0.08s CPU      0.08s WALL (    2448 calls)
     cegterg      :     11.09s CPU     11.45s WALL (    1152 calls)

     Called by sum_band:
     sum_band:bec :      0.03s CPU      0.04s WALL (    1152 calls)
     addusdens    :      0.23s CPU      0.23s WALL (       8 calls)

     Called by *egterg:
     h_psi        :      7.81s CPU      8.03s WALL (    3659 calls)
     s_psi        :      0.18s CPU      0.18s WALL (    3659 calls)
     g_psi        :      0.05s CPU      0.05s WALL (    2363 calls)
     cdiaghg      :      2.60s CPU      2.64s WALL (    3515 calls)

     Called by h_psi:
     add_vuspsi   :      0.22s CPU      0.22s WALL (    3659 calls)

     General routines
     calbec       :      0.28s CPU      0.23s WALL (    4811 calls)
     fft          :      0.06s CPU      0.06s WALL (     419 calls)
     ffts         :      0.00s CPU      0.00s WALL (      68 calls)
     fftw         :      6.59s CPU      6.99s WALL (  253172 calls)
     interpolate  :      0.01s CPU      0.01s WALL (      68 calls)
     davcio       :      0.00s CPU      0.01s WALL (     144 calls)
 
     Parallel routines
     fft_scatter  :      1.50s CPU      1.92s WALL (  253659 calls)
 
     PWSCF        :    15.02s CPU        15.52s WALL

 
   This run was terminated on:  11:21:43  15Jun2016            

=------------------------------------------------------------------------------=
   JOB DONE.
=------------------------------------------------------------------------------=
