
     Program PWSCF v.5.4.0 (svn rev. 12547M) starts on 29Jun2016 at 17:52: 8 

     This program is part of the open-source Quantum ESPRESSO suite
     for quantum simulation of materials; please cite
         "P. Giannozzi et al., J. Phys.:Condens. Matter 21 395502 (2009);
          URL http://www.quantum-espresso.org", 
     in publications or presentations arising from this work. More details at
     http://www.quantum-espresso.org/quote
 
           HOST :    x86_64-pc-linux-gnu
           ARCH :    x86_64
             CC :    icc
            CPP :    cpp
            F90 :    gfortran
            F77 :    gfortran
         DFLAGS :    -D__GFORTRAN -D__STD_F95 -D__DFTI -D__MPI -D__PARA -D__HDF5
      BLAS LIBS :    -lmkl_gf_lp64  -lmkl_sequential -lmkl_core
    LAPACK LIBS :    
       FFT LIBS :    
      MASS LIBS :    

     Parallel version (MPI), running on     2 processors
     R & G space division:  proc/nbgrp/npool/nimage =       2
     Waiting for input...
     Reading input from standard input
     Message from routine read_cards :
     DEPRECATED: no units specified in ATOMIC_POSITIONS card
     Message from routine read_cards :
     ATOMIC_POSITIONS: units set to alat

     Current dimensions of program PWSCF are:
     Max number of different atomic species (ntypx) = 10
     Max number of k-points (npk) =  40000
     Max angular momentum in pseudopotentials (lmaxx) =  3
               file O.pbe-rrkjus.UPF: wavefunction(s)  2S renormalized
               file O.pbe-rrkjus.UPF: wavefunction(s)  2S renormalized

     Fixed quantization axis for GGA:     1.000000    0.000000    0.000000

     Subspace diagonalization in iterative solution of the eigenvalue problem:
     a serial algorithm will be used

 
     Parallelization info
     --------------------
     sticks:   dense  smooth     PW     G-vecs:    dense   smooth      PW
     Min         442     218     54                10002     3556     446
     Max         443     219     55                10003     3567     449
     Sum         885     437    109                20005     7123     895
 
     Generating pointlists ...
     new r_m :   0.1429 (alat units)  1.0717 (a.u.) for type    1
     new r_m :   0.1429 (alat units)  1.0717 (a.u.) for type    2


     bravais-lattice index     =            1
     lattice parameter (alat)  =       7.5000  a.u.
     unit-cell volume          =     421.8750 (a.u.)^3
     number of atoms/cell      =            2
     number of atomic types    =            2
     number of electrons       =        12.00
     number of Kohn-Sham states=           20
     kinetic-energy cutoff     =      25.0000  Ry
     charge density cutoff     =     200.0000  Ry
     convergence threshold     =      1.0E-06
     mixing beta               =       0.2000
     number of iterations used =            8  plain     mixing
     Exchange-correlation      =  SLA  PW   PBE  PBE ( 1  4  3  4 0 0)
     nstep                     =           50

     Noncollinear calculation without spin-orbit


     celldm(1)=   7.500000  celldm(2)=   0.000000  celldm(3)=   0.000000
     celldm(4)=   0.000000  celldm(5)=   0.000000  celldm(6)=   0.000000

     crystal axes: (cart. coord. in units of alat)
               a(1) = (   1.000000   0.000000   0.000000 )  
               a(2) = (   0.000000   1.000000   0.000000 )  
               a(3) = (   0.000000   0.000000   1.000000 )  

     reciprocal axes: (cart. coord. in units 2 pi/alat)
               b(1) = (  1.000000  0.000000  0.000000 )  
               b(2) = (  0.000000  1.000000  0.000000 )  
               b(3) = (  0.000000  0.000000  1.000000 )  


     PseudoPot. # 1 for O  read from file:
     /home/nvarini/espresso_hdf5/espresso/pseudo/O.pbe-rrkjus.UPF
     MD5 check sum: 390ba29e75625707450f3bd3f0eb6be9
     Pseudo is Ultrasoft, Zval =  6.0
     Generated by new atomic code, or converted to UPF format
     Using radial grid of 1269 points,  4 beta functions with: 
                l(1) =   0
                l(2) =   0
                l(3) =   1
                l(4) =   1
     Q(r) pseudized with 0 coefficients 


     PseudoPot. # 2 for O  read from file:
     /home/nvarini/espresso_hdf5/espresso/pseudo/O.pbe-rrkjus.UPF
     MD5 check sum: 390ba29e75625707450f3bd3f0eb6be9
     Pseudo is Ultrasoft, Zval =  6.0
     Generated by new atomic code, or converted to UPF format
     Using radial grid of 1269 points,  4 beta functions with: 
                l(1) =   0
                l(2) =   0
                l(3) =   1
                l(4) =   1
     Q(r) pseudized with 0 coefficients 


     atomic species   valence    mass     pseudopotential
        O1             6.00    16.00000     O ( 1.00)
        O2             6.00    16.00000     O ( 1.00)

      2 Sym. Ops. (no inversion) found



   Cartesian axes

     site n.     atom                  positions (alat units)
         1           O1  tau(   1) = (   0.0000000   0.0000000   0.0000000  )
         2           O2  tau(   2) = (   0.2000000   0.2000000   0.2000000  )

     number of k points=     1  gaussian smearing, width (Ry)=  0.0500
                       cart. coord. in units 2pi/alat
        k(    1) = (   0.0000000   0.0000000   0.0000000), wk =   1.0000000

     Dense  grid:    20005 G-vectors     FFT dimensions: (  36,  36,  36)

     Smooth grid:     7123 G-vectors     FFT dimensions: (  24,  24,  24)

     Largest allocated arrays     est. size (Mb)     dimensions
        Kohn-Sham Wavefunctions         0.27 Mb     (     898,   20)
        NL pseudopotentials             0.11 Mb     (     449,   16)
        Each V/rho on FFT grid          0.36 Mb     (   23328)
        Each G-vector array             0.08 Mb     (   10002)
        G-vector shells                 0.00 Mb     (     239)
     Largest temporary arrays     est. size (Mb)     dimensions
        Auxiliary wavefunctions         1.10 Mb     (     898,   80)
        Each subspace H/S matrix        0.10 Mb     (      80,   80)
        Each <psi_i|beta_j> matrix      0.01 Mb     (      16,   2,   20)
        Arrays for rho mixing           2.85 Mb     (   23328,    8)

     Initial potential from superposition of free atoms

     starting charge   12.00000, renormalised to   12.00000

 ==============================================================================
     atom number    1 relative position :    0.0000   0.0000   0.0000
     charge :     3.441447
     magnetization :          1.720724    0.000000    0.000000
     magnetization/charge:    0.500000    0.000000    0.000000
     polar coord.: r, theta, phi [deg] :     1.720724   90.000000    0.000000

 ==============================================================================

 ==============================================================================
     atom number    2 relative position :    0.2000   0.2000   0.2000
     charge :     3.435534
     magnetization :          1.717767    0.000000    0.000000
     magnetization/charge:    0.500000    0.000000    0.000000
     polar coord.: r, theta, phi [deg] :     1.717767   90.000000    0.000000

 ==============================================================================
     Starting wfc are   16 randomized atomic wfcs +    4 random wfc

     total cpu time spent up to now is        0.5 secs

     per-process dynamical memory:    19.3 Mb

     Self-consistent Calculation

     iteration #  1     ecut=    25.00 Ry     beta=0.20
     Davidson diagonalization with overlap
     ethr =  1.00E-02,  avg # of iterations =  4.0

 ==============================================================================
     atom number    1 relative position :    0.0000   0.0000   0.0000
     charge :     3.446258
     magnetization :          1.518274    0.000009    0.000009
     magnetization/charge:    0.440557    0.000002    0.000002
     polar coord.: r, theta, phi [deg] :     1.518274   89.999679    0.000321

 ==============================================================================

 ==============================================================================
     atom number    2 relative position :    0.2000   0.2000   0.2000
     charge :     3.440381
     magnetization :          1.515747   -0.000020   -0.000020
     magnetization/charge:    0.440575   -0.000006   -0.000006
     polar coord.: r, theta, phi [deg] :     1.515747   90.000770   -0.000770

 ==============================================================================

     total cpu time spent up to now is        0.7 secs

     total energy              =     -63.26180475 Ry
     Harris-Foulkes estimate   =     -63.17438210 Ry
     estimated scf accuracy    <       0.17750327 Ry

     total magnetization       =     2.00     0.00     0.00 Bohr mag/cell
     absolute magnetization    =     2.09 Bohr mag/cell

     iteration #  2     ecut=    25.00 Ry     beta=0.20
     Davidson diagonalization with overlap
     ethr =  1.48E-03,  avg # of iterations =  5.0

     negative rho (up, down):  6.203E-05 3.978E-02

 ==============================================================================
     atom number    1 relative position :    0.0000   0.0000   0.0000
     charge :     3.462730
     magnetization :          0.738099    0.000001    0.000001
     magnetization/charge:    0.213155    0.000000    0.000000
     polar coord.: r, theta, phi [deg] :     0.738099   89.999954    0.000046

 ==============================================================================

 ==============================================================================
     atom number    2 relative position :    0.2000   0.2000   0.2000
     charge :     3.456970
     magnetization :          0.737369   -0.000014   -0.000014
     magnetization/charge:    0.213299   -0.000004   -0.000004
     polar coord.: r, theta, phi [deg] :     0.737369   90.001067   -0.001067

 ==============================================================================

     total cpu time spent up to now is        0.8 secs

     total energy              =     -63.41643219 Ry
     Harris-Foulkes estimate   =     -63.26300502 Ry
     estimated scf accuracy    <       0.11286629 Ry

     total magnetization       =     2.00    -0.00    -0.00 Bohr mag/cell
     absolute magnetization    =     2.07 Bohr mag/cell

     iteration #  3     ecut=    25.00 Ry     beta=0.20
     Davidson diagonalization with overlap
     ethr =  9.41E-04,  avg # of iterations =  1.0

     negative rho (up, down):  3.390E-05 2.780E-02

 ==============================================================================
     atom number    1 relative position :    0.0000   0.0000   0.0000
     charge :     3.456434
     magnetization :          0.663010   -0.000009   -0.000009
     magnetization/charge:    0.191819   -0.000003   -0.000003
     polar coord.: r, theta, phi [deg] :     0.663010   90.000793   -0.000793

 ==============================================================================

 ==============================================================================
     atom number    2 relative position :    0.2000   0.2000   0.2000
     charge :     3.450436
     magnetization :          0.662598   -0.000001   -0.000001
     magnetization/charge:    0.192033   -0.000000   -0.000000
     polar coord.: r, theta, phi [deg] :     0.662598   90.000097   -0.000097

 ==============================================================================

     total cpu time spent up to now is        1.0 secs

     total energy              =     -63.42543717 Ry
     Harris-Foulkes estimate   =     -63.42524479 Ry
     estimated scf accuracy    <       0.00334506 Ry

     total magnetization       =     1.98    -0.00    -0.00 Bohr mag/cell
     absolute magnetization    =     2.03 Bohr mag/cell

     iteration #  4     ecut=    25.00 Ry     beta=0.20
     Davidson diagonalization with overlap
     ethr =  2.79E-05,  avg # of iterations =  3.0

     negative rho (up, down):  1.068E-05 1.944E-02

 ==============================================================================
     atom number    1 relative position :    0.0000   0.0000   0.0000
     charge :     3.455202
     magnetization :          0.639446   -0.000009   -0.000009
     magnetization/charge:    0.185068   -0.000002   -0.000002
     polar coord.: r, theta, phi [deg] :     0.639446   90.000771   -0.000771

 ==============================================================================

 ==============================================================================
     atom number    2 relative position :    0.2000   0.2000   0.2000
     charge :     3.449385
     magnetization :          0.639004    0.000005    0.000005
     magnetization/charge:    0.185252    0.000001    0.000001
     polar coord.: r, theta, phi [deg] :     0.639004   89.999550    0.000450

 ==============================================================================

     total cpu time spent up to now is        1.1 secs

     total energy              =     -63.42609019 Ry
     Harris-Foulkes estimate   =     -63.42589961 Ry
     estimated scf accuracy    <       0.00016536 Ry

     total magnetization       =     1.96    -0.00    -0.00 Bohr mag/cell
     absolute magnetization    =     2.01 Bohr mag/cell

     iteration #  5     ecut=    25.00 Ry     beta=0.20
     Davidson diagonalization with overlap
     ethr =  1.38E-06,  avg # of iterations = 12.0

     negative rho (up, down):  1.535E-06 1.316E-02

 ==============================================================================
     atom number    1 relative position :    0.0000   0.0000   0.0000
     charge :     3.455344
     magnetization :          0.629891   -0.000006   -0.000006
     magnetization/charge:    0.182295   -0.000002   -0.000002
     polar coord.: r, theta, phi [deg] :     0.629891   90.000538   -0.000538

 ==============================================================================

 ==============================================================================
     atom number    2 relative position :    0.2000   0.2000   0.2000
     charge :     3.449336
     magnetization :          0.629584    0.000000    0.000000
     magnetization/charge:    0.182523    0.000000    0.000000
     polar coord.: r, theta, phi [deg] :     0.629584   89.999962    0.000038

 ==============================================================================

     total cpu time spent up to now is        1.3 secs

     total energy              =     -63.42630269 Ry
     Harris-Foulkes estimate   =     -63.42612567 Ry
     estimated scf accuracy    <       0.00004935 Ry

     total magnetization       =     1.96     0.00     0.00 Bohr mag/cell
     absolute magnetization    =     2.01 Bohr mag/cell

     iteration #  6     ecut=    25.00 Ry     beta=0.20
     Davidson diagonalization with overlap
     ethr =  4.11E-07,  avg # of iterations =  2.0

     negative rho (up, down):  2.493E-08 9.238E-03

 ==============================================================================
     atom number    1 relative position :    0.0000   0.0000   0.0000
     charge :     3.454930
     magnetization :          0.627070   -0.000003   -0.000003
     magnetization/charge:    0.181500   -0.000001   -0.000001
     polar coord.: r, theta, phi [deg] :     0.627070   90.000298   -0.000298

 ==============================================================================

 ==============================================================================
     atom number    2 relative position :    0.2000   0.2000   0.2000
     charge :     3.449108
     magnetization :          0.626681   -0.000003   -0.000003
     magnetization/charge:    0.181694   -0.000001   -0.000001
     polar coord.: r, theta, phi [deg] :     0.626681   90.000269   -0.000269

 ==============================================================================

     total cpu time spent up to now is        1.4 secs

     total energy              =     -63.42645983 Ry
     Harris-Foulkes estimate   =     -63.42631063 Ry
     estimated scf accuracy    <       0.00001294 Ry

     total magnetization       =     1.96    -0.00    -0.00 Bohr mag/cell
     absolute magnetization    =     2.01 Bohr mag/cell

     iteration #  7     ecut=    25.00 Ry     beta=0.20
     Davidson diagonalization with overlap
     ethr =  1.08E-07,  avg # of iterations =  2.0

 ==============================================================================
     atom number    1 relative position :    0.0000   0.0000   0.0000
     charge :     3.455125
     magnetization :          0.627432   -0.000019   -0.000019
     magnetization/charge:    0.181594   -0.000005   -0.000005
     polar coord.: r, theta, phi [deg] :     0.627432   90.001695   -0.001695

 ==============================================================================

 ==============================================================================
     atom number    2 relative position :    0.2000   0.2000   0.2000
     charge :     3.449044
     magnetization :          0.627171    0.000006    0.000006
     magnetization/charge:    0.181839    0.000002    0.000002
     polar coord.: r, theta, phi [deg] :     0.627171   89.999408    0.000592

 ==============================================================================

     total cpu time spent up to now is        1.6 secs

     End of self-consistent calculation

          k = 0.0000 0.0000 0.0000 (   895 PWs)   bands (ev):

   -26.9501 -25.6489 -18.6029 -16.8099 -10.0746  -9.3267  -8.9646  -8.9646
    -7.0577  -7.0577  -4.9054  -4.9054  -2.6825  -2.6825   1.9186   2.1997
     2.2336   3.1182   9.6706   9.6706

     the Fermi energy is    -3.7940 ev

!    total energy              =     -63.42646500 Ry
     Harris-Foulkes estimate   =     -63.42646402 Ry
     estimated scf accuracy    <       0.00000086 Ry

     The total energy is the sum of the following terms:

     one-electron contribution =     -57.22339402 Ry
     hartree contribution      =      31.81961639 Ry
     xc contribution           =     -13.40022839 Ry
     ewald contribution        =     -24.61854905 Ry
     smearing contrib. (-TS)   =      -0.00390993 Ry

     total magnetization       =     1.96    -0.00    -0.00 Bohr mag/cell
     absolute magnetization    =     2.00 Bohr mag/cell

     convergence has been achieved in   7 iterations

     Forces acting on atoms (Ry/au):

     atom    1 type  1   force =     0.17125666    0.17120922    0.17120922
     atom    2 type  2   force =    -0.17125666   -0.17120922   -0.17120922

     Total force =     0.419414     Total SCF correction =     0.002267

     BFGS Geometry Optimization

     number of scf cycles    =   1
     number of bfgs steps    =   0

     energy   new            =     -63.4264649952 Ry

     new trust radius        =       0.2965704557 bohr
     new conv_thr            =       0.0000010000 Ry


ATOMIC_POSITIONS (alat)
O1       0.022834221   0.022827896   0.022827896
O2       0.177165779   0.177172104   0.177172104



     Writing output data file o2.save
     NEW-OLD atomic charge density approx. for the potential

     total cpu time spent up to now is        1.7 secs

     per-process dynamical memory:    26.8 Mb

     Self-consistent Calculation

     iteration #  1     ecut=    25.00 Ry     beta=0.20
     Davidson diagonalization with overlap
     ethr =  1.00E-06,  avg # of iterations =  6.0

     negative rho (up, down):  0.000E+00 2.133E-02

 ==============================================================================
     atom number    1 relative position :    0.0228   0.0228   0.0228
     charge :     3.395732
     magnetization :          0.598243   -0.000011   -0.000011
     magnetization/charge:    0.176175   -0.000003   -0.000003
     polar coord.: r, theta, phi [deg] :     0.598243   90.001094   -0.001094

 ==============================================================================

 ==============================================================================
     atom number    2 relative position :    0.1772   0.1772   0.1772
     charge :     3.387441
     magnetization :          0.597867    0.000006    0.000006
     magnetization/charge:    0.176495    0.000002    0.000002
     polar coord.: r, theta, phi [deg] :     0.597867   89.999420    0.000580

 ==============================================================================

     total cpu time spent up to now is        1.9 secs

     total energy              =     -63.36477310 Ry
     Harris-Foulkes estimate   =     -63.37312835 Ry
     estimated scf accuracy    <       0.05712510 Ry

     total magnetization       =     1.94    -0.00    -0.00 Bohr mag/cell
     absolute magnetization    =     1.98 Bohr mag/cell

     iteration #  2     ecut=    25.00 Ry     beta=0.20
     Davidson diagonalization with overlap
     ethr =  4.76E-04,  avg # of iterations =  1.0

     negative rho (up, down):  1.061E-04 4.908E-02

 ==============================================================================
     atom number    1 relative position :    0.0228   0.0228   0.0228
     charge :     3.453483
     magnetization :          0.613773   -0.000001   -0.000001
     magnetization/charge:    0.177726   -0.000000   -0.000000
     polar coord.: r, theta, phi [deg] :     0.613773   90.000079   -0.000079

 ==============================================================================

 ==============================================================================
     atom number    2 relative position :    0.1772   0.1772   0.1772
     charge :     3.445301
     magnetization :          0.613036   -0.000000   -0.000000
     magnetization/charge:    0.177934   -0.000000   -0.000000
     polar coord.: r, theta, phi [deg] :     0.613036   90.000004   -0.000004

 ==============================================================================

     total cpu time spent up to now is        2.1 secs

     total energy              =     -63.35975128 Ry
     Harris-Foulkes estimate   =     -63.36587722 Ry
     estimated scf accuracy    <       0.02629020 Ry

     total magnetization       =     1.95     0.00     0.00 Bohr mag/cell
     absolute magnetization    =     1.98 Bohr mag/cell

     iteration #  3     ecut=    25.00 Ry     beta=0.20
     Davidson diagonalization with overlap
     ethr =  2.19E-04,  avg # of iterations =  2.0

     negative rho (up, down):  2.996E-04 5.965E-02

 ==============================================================================
     atom number    1 relative position :    0.0228   0.0228   0.0228
     charge :     3.440884
     magnetization :          0.613560   -0.000002   -0.000002
     magnetization/charge:    0.178315   -0.000001   -0.000001
     polar coord.: r, theta, phi [deg] :     0.613560   90.000163   -0.000163

 ==============================================================================

 ==============================================================================
     atom number    2 relative position :    0.1772   0.1772   0.1772
     charge :     3.432428
     magnetization :          0.612750    0.000001    0.000001
     magnetization/charge:    0.178518    0.000000    0.000000
     polar coord.: r, theta, phi [deg] :     0.612750   89.999885    0.000115

 ==============================================================================

     total cpu time spent up to now is        2.2 secs

     total energy              =     -63.36474739 Ry
     Harris-Foulkes estimate   =     -63.36387795 Ry
     estimated scf accuracy    <       0.00192439 Ry

     total magnetization       =     1.96     0.00     0.00 Bohr mag/cell
     absolute magnetization    =     1.99 Bohr mag/cell

     iteration #  4     ecut=    25.00 Ry     beta=0.20
     Davidson diagonalization with overlap
     ethr =  1.60E-05,  avg # of iterations =  2.0

     negative rho (up, down):  1.751E-04 5.013E-02

 ==============================================================================
     atom number    1 relative position :    0.0228   0.0228   0.0228
     charge :     3.450983
     magnetization :          0.616042   -0.000000   -0.000000
     magnetization/charge:    0.178512   -0.000000   -0.000000
     polar coord.: r, theta, phi [deg] :     0.616042   90.000011   -0.000011

 ==============================================================================

 ==============================================================================
     atom number    2 relative position :    0.1772   0.1772   0.1772
     charge :     3.442724
     magnetization :          0.615138    0.000001    0.000001
     magnetization/charge:    0.178678    0.000000    0.000000
     polar coord.: r, theta, phi [deg] :     0.615138   89.999948    0.000052

 ==============================================================================

     total cpu time spent up to now is        2.4 secs

     total energy              =     -63.36502124 Ry
     Harris-Foulkes estimate   =     -63.36524428 Ry
     estimated scf accuracy    <       0.00052397 Ry

     total magnetization       =     1.96     0.00     0.00 Bohr mag/cell
     absolute magnetization    =     2.00 Bohr mag/cell

     iteration #  5     ecut=    25.00 Ry     beta=0.20
     Davidson diagonalization with overlap
     ethr =  4.37E-06,  avg # of iterations =  2.0

     negative rho (up, down):  9.969E-05 3.843E-02

 ==============================================================================
     atom number    1 relative position :    0.0228   0.0228   0.0228
     charge :     3.446472
     magnetization :          0.615873   -0.000000   -0.000000
     magnetization/charge:    0.178697   -0.000000   -0.000000
     polar coord.: r, theta, phi [deg] :     0.615873   90.000003   -0.000003

 ==============================================================================

 ==============================================================================
     atom number    2 relative position :    0.1772   0.1772   0.1772
     charge :     3.438279
     magnetization :          0.614937    0.000001    0.000001
     magnetization/charge:    0.178850    0.000000    0.000000
     polar coord.: r, theta, phi [deg] :     0.614937   89.999930    0.000070

 ==============================================================================

     total cpu time spent up to now is        2.5 secs

     total energy              =     -63.36519425 Ry
     Harris-Foulkes estimate   =     -63.36516723 Ry
     estimated scf accuracy    <       0.00006637 Ry

     total magnetization       =     1.96     0.00     0.00 Bohr mag/cell
     absolute magnetization    =     2.00 Bohr mag/cell

     iteration #  6     ecut=    25.00 Ry     beta=0.20
     Davidson diagonalization with overlap
     ethr =  5.53E-07,  avg # of iterations =  2.0

     negative rho (up, down):  4.608E-05 2.949E-02

 ==============================================================================
     atom number    1 relative position :    0.0228   0.0228   0.0228
     charge :     3.447542
     magnetization :          0.616089    0.000000    0.000000
     magnetization/charge:    0.178704    0.000000    0.000000
     polar coord.: r, theta, phi [deg] :     0.616089   89.999976    0.000024

 ==============================================================================

 ==============================================================================
     atom number    2 relative position :    0.1772   0.1772   0.1772
     charge :     3.439272
     magnetization :          0.615176    0.000001    0.000001
     magnetization/charge:    0.178868    0.000000    0.000000
     polar coord.: r, theta, phi [deg] :     0.615176   89.999940    0.000060

 ==============================================================================

     total cpu time spent up to now is        2.7 secs

     total energy              =     -63.36533781 Ry
     Harris-Foulkes estimate   =     -63.36521992 Ry
     estimated scf accuracy    <       0.00001342 Ry

     total magnetization       =     1.97     0.00     0.00 Bohr mag/cell
     absolute magnetization    =     2.00 Bohr mag/cell

     iteration #  7     ecut=    25.00 Ry     beta=0.20
     Davidson diagonalization with overlap
     ethr =  1.12E-07,  avg # of iterations =  2.0

     negative rho (up, down):  1.853E-05 2.221E-02

 ==============================================================================
     atom number    1 relative position :    0.0228   0.0228   0.0228
     charge :     3.447813
     magnetization :          0.616232    0.000001    0.000001
     magnetization/charge:    0.178731    0.000000    0.000000
     polar coord.: r, theta, phi [deg] :     0.616232   89.999910    0.000090

 ==============================================================================

 ==============================================================================
     atom number    2 relative position :    0.1772   0.1772   0.1772
     charge :     3.439515
     magnetization :          0.615321   -0.000000   -0.000000
     magnetization/charge:    0.178898   -0.000000   -0.000000
     polar coord.: r, theta, phi [deg] :     0.615321   90.000026   -0.000026

 ==============================================================================

     total cpu time spent up to now is        2.8 secs

     total energy              =     -63.36548763 Ry
     Harris-Foulkes estimate   =     -63.36533988 Ry
     estimated scf accuracy    <       0.00000223 Ry

     total magnetization       =     1.97     0.00     0.00 Bohr mag/cell
     absolute magnetization    =     2.00 Bohr mag/cell

     iteration #  8     ecut=    25.00 Ry     beta=0.20
     Davidson diagonalization with overlap
     ethr =  1.86E-08,  avg # of iterations =  2.0

 ==============================================================================
     atom number    1 relative position :    0.0228   0.0228   0.0228
     charge :     3.448388
     magnetization :          0.616457    0.000001    0.000001
     magnetization/charge:    0.178767    0.000000    0.000000
     polar coord.: r, theta, phi [deg] :     0.616457   89.999894    0.000106

 ==============================================================================

 ==============================================================================
     atom number    2 relative position :    0.1772   0.1772   0.1772
     charge :     3.440240
     magnetization :          0.615466    0.000000    0.000000
     magnetization/charge:    0.178902    0.000000    0.000000
     polar coord.: r, theta, phi [deg] :     0.615466   89.999997    0.000002

 ==============================================================================

     total cpu time spent up to now is        3.0 secs

     End of self-consistent calculation

          k = 0.0000 0.0000 0.0000 (   895 PWs)   bands (ev):

   -34.1224 -33.0120 -16.3392 -14.5631 -12.2944 -12.2944 -11.2100 -10.4039
   -10.4039 -10.2467  -2.7759  -2.7758  -0.4752  -0.4751   1.8684   2.1570
     9.4907   9.4909  10.0062  10.4827

     the Fermi energy is    -1.6255 ev

!    total energy              =     -63.36568896 Ry
     Harris-Foulkes estimate   =     -63.36548900 Ry
     estimated scf accuracy    <       0.00000051 Ry

     The total energy is the sum of the following terms:

     one-electron contribution =     -69.98574444 Ry
     hartree contribution      =      37.76859118 Ry
     xc contribution           =     -13.91960800 Ry
     ewald contribution        =     -17.22569456 Ry
     smearing contrib. (-TS)   =      -0.00323314 Ry

     total magnetization       =     1.97     0.00     0.00 Bohr mag/cell
     absolute magnetization    =     2.00 Bohr mag/cell

     convergence has been achieved in   8 iterations

     Forces acting on atoms (Ry/au):

     atom    1 type  1   force =    -0.54430556   -0.54434764   -0.54434764
     atom    2 type  2   force =     0.54430556    0.54434764    0.54434764

     Total force =     1.333340     Total SCF correction =     0.000759

     number of scf cycles    =   2
     number of bfgs steps    =   1

     energy   old            =     -63.4264649952 Ry
     energy   new            =     -63.3656889590 Ry

     CASE: energy  _new > energy  _old

     new trust radius        =       0.1102083645 bohr
     new conv_thr            =       0.0000010000 Ry


ATOMIC_POSITIONS (alat)
O1       0.008485411   0.008483060   0.008483060
O2       0.191514589   0.191516940   0.191516940



     Writing output data file o2.save
     NEW-OLD atomic charge density approx. for the potential

     total cpu time spent up to now is        3.1 secs

     per-process dynamical memory:    27.8 Mb

     Self-consistent Calculation

     iteration #  1     ecut=    25.00 Ry     beta=0.20
     Davidson diagonalization with overlap
     ethr =  1.00E-06,  avg # of iterations =  5.0

     negative rho (up, down):  0.000E+00 5.466E-03

 ==============================================================================
     atom number    1 relative position :    0.0085   0.0085   0.0085
     charge :     3.513098
     magnetization :          0.619918    0.000001    0.000001
     magnetization/charge:    0.176459    0.000000    0.000000
     polar coord.: r, theta, phi [deg] :     0.619918   89.999904    0.000096

 ==============================================================================

 ==============================================================================
     atom number    2 relative position :    0.1915   0.1915   0.1915
     charge :     3.506496
     magnetization :          0.619226    0.000000    0.000000
     magnetization/charge:    0.176594    0.000000    0.000000
     polar coord.: r, theta, phi [deg] :     0.619226   89.999970    0.000030

 ==============================================================================

     total cpu time spent up to now is        3.3 secs

     total energy              =     -63.47500029 Ry
     Harris-Foulkes estimate   =     -63.48072450 Ry
     estimated scf accuracy    <       0.03054152 Ry

     total magnetization       =     1.95     0.00     0.00 Bohr mag/cell
     absolute magnetization    =     2.00 Bohr mag/cell

     iteration #  2     ecut=    25.00 Ry     beta=0.20
     Davidson diagonalization with overlap
     ethr =  2.55E-04,  avg # of iterations =  1.0

     negative rho (up, down):  2.789E-06 1.425E-02

 ==============================================================================
     atom number    1 relative position :    0.0085   0.0085   0.0085
     charge :     3.474029
     magnetization :          0.618235    0.000001    0.000001
     magnetization/charge:    0.177959    0.000000    0.000000
     polar coord.: r, theta, phi [deg] :     0.618235   89.999877    0.000123

 ==============================================================================

 ==============================================================================
     atom number    2 relative position :    0.1915   0.1915   0.1915
     charge :     3.467465
     magnetization :          0.617558   -0.000000   -0.000000
     magnetization/charge:    0.178101   -0.000000   -0.000000
     polar coord.: r, theta, phi [deg] :     0.617558   90.000009   -0.000009

 ==============================================================================

     total cpu time spent up to now is        3.4 secs

     total energy              =     -63.47180530 Ry
     Harris-Foulkes estimate   =     -63.47576841 Ry
     estimated scf accuracy    <       0.01309615 Ry

     total magnetization       =     1.96     0.00     0.00 Bohr mag/cell
     absolute magnetization    =     2.00 Bohr mag/cell

     iteration #  3     ecut=    25.00 Ry     beta=0.20
     Davidson diagonalization with overlap
     ethr =  1.09E-04,  avg # of iterations =  2.0

     negative rho (up, down):  7.932E-05 3.251E-02

 ==============================================================================
     atom number    1 relative position :    0.0085   0.0085   0.0085
     charge :     3.474432
     magnetization :          0.626639    0.000001    0.000001
     magnetization/charge:    0.180357    0.000000    0.000000
     polar coord.: r, theta, phi [deg] :     0.626639   89.999933    0.000067

 ==============================================================================

 ==============================================================================
     atom number    2 relative position :    0.1915   0.1915   0.1915
     charge :     3.467906
     magnetization :          0.625962    0.000001    0.000001
     magnetization/charge:    0.180502    0.000000    0.000000
     polar coord.: r, theta, phi [deg] :     0.625962   89.999932    0.000068

 ==============================================================================

     total cpu time spent up to now is        3.6 secs

     total energy              =     -63.47425287 Ry
     Harris-Foulkes estimate   =     -63.47379411 Ry
     estimated scf accuracy    <       0.00108154 Ry

     total magnetization       =     1.96     0.00     0.00 Bohr mag/cell
     absolute magnetization    =     2.00 Bohr mag/cell

     iteration #  4     ecut=    25.00 Ry     beta=0.20
     Davidson diagonalization with overlap
     ethr =  9.01E-06,  avg # of iterations =  2.0

     negative rho (up, down):  4.455E-05 2.679E-02

 ==============================================================================
     atom number    1 relative position :    0.0085   0.0085   0.0085
     charge :     3.475698
     magnetization :          0.628581    0.000001    0.000001
     magnetization/charge:    0.180850    0.000000    0.000000
     polar coord.: r, theta, phi [deg] :     0.628581   89.999945    0.000055

 ==============================================================================

 ==============================================================================
     atom number    2 relative position :    0.1915   0.1915   0.1915
     charge :     3.469132
     magnetization :          0.627922    0.000001    0.000001
     magnetization/charge:    0.181003    0.000000    0.000000
     polar coord.: r, theta, phi [deg] :     0.627922   89.999915    0.000085

 ==============================================================================

     total cpu time spent up to now is        3.7 secs

     total energy              =     -63.47449139 Ry
     Harris-Foulkes estimate   =     -63.47435020 Ry
     estimated scf accuracy    <       0.00002439 Ry

     total magnetization       =     1.96     0.00     0.00 Bohr mag/cell
     absolute magnetization    =     2.01 Bohr mag/cell

     iteration #  5     ecut=    25.00 Ry     beta=0.20
     Davidson diagonalization with overlap
     ethr =  2.03E-07,  avg # of iterations =  2.0

     negative rho (up, down):  1.629E-05 1.998E-02

 ==============================================================================
     atom number    1 relative position :    0.0085   0.0085   0.0085
     charge :     3.476103
     magnetization :          0.632045    0.000001    0.000001
     magnetization/charge:    0.181826    0.000000    0.000000
     polar coord.: r, theta, phi [deg] :     0.632045   89.999889    0.000111

 ==============================================================================

 ==============================================================================
     atom number    2 relative position :    0.1915   0.1915   0.1915
     charge :     3.469559
     magnetization :          0.631367    0.000000    0.000000
     magnetization/charge:    0.181973    0.000000    0.000000
     polar coord.: r, theta, phi [deg] :     0.631367   89.999965    0.000035

 ==============================================================================

     total cpu time spent up to now is        3.9 secs

     total energy              =     -63.47459452 Ry
     Harris-Foulkes estimate   =     -63.47449761 Ry
     estimated scf accuracy    <       0.00000848 Ry

     total magnetization       =     1.96     0.00     0.00 Bohr mag/cell
     absolute magnetization    =     2.01 Bohr mag/cell

     iteration #  6     ecut=    25.00 Ry     beta=0.20
     Davidson diagonalization with overlap
     ethr =  7.06E-08,  avg # of iterations =  2.0

 ==============================================================================
     atom number    1 relative position :    0.0085   0.0085   0.0085
     charge :     3.475551
     magnetization :          0.632723    0.000000    0.000000
     magnetization/charge:    0.182050    0.000000    0.000000
     polar coord.: r, theta, phi [deg] :     0.632723   89.999975    0.000025

 ==============================================================================

 ==============================================================================
     atom number    2 relative position :    0.1915   0.1915   0.1915
     charge :     3.468956
     magnetization :          0.632074    0.000001    0.000001
     magnetization/charge:    0.182209    0.000000    0.000000
     polar coord.: r, theta, phi [deg] :     0.632074   89.999914    0.000086

 ==============================================================================

     total cpu time spent up to now is        4.0 secs

     End of self-consistent calculation

          k = 0.0000 0.0000 0.0000 (   895 PWs)   bands (ev):

   -29.0615 -27.8219 -17.8277 -16.0242 -10.5144  -9.9144  -9.9144  -9.6906
    -8.0086  -8.0085  -4.3089  -4.3089  -2.0407  -2.0406   1.8743   2.1280
     5.0718   6.0266   9.5619   9.5620

     the Fermi energy is    -3.1748 ev

!    total energy              =     -63.47470815 Ry
     Harris-Foulkes estimate   =     -63.47459769 Ry
     estimated scf accuracy    <       0.00000071 Ry

     The total energy is the sum of the following terms:

     one-electron contribution =     -61.27560214 Ry
     hartree contribution      =      33.71572744 Ry
     xc contribution           =     -13.54761670 Ry
     ewald contribution        =     -22.36371404 Ry
     smearing contrib. (-TS)   =      -0.00350270 Ry

     total magnetization       =     1.96     0.00     0.00 Bohr mag/cell
     absolute magnetization    =     2.01 Bohr mag/cell

     convergence has been achieved in   6 iterations

     Forces acting on atoms (Ry/au):

     atom    1 type  1   force =     0.06575795    0.06575889    0.06575889
     atom    2 type  2   force =    -0.06575795   -0.06575889   -0.06575889

     Total force =     0.161075     Total SCF correction =     0.003014

     number of scf cycles    =   3
     number of bfgs steps    =   1

     energy   old            =     -63.4264649952 Ry
     energy   new            =     -63.4747081458 Ry

     CASE: energy  _new < energy  _old

     new trust radius        =       0.0687151735 bohr
     new conv_thr            =       0.0000006576 Ry


ATOMIC_POSITIONS (alat)
O1       0.013773319   0.013773651   0.013773651
O2       0.186226681   0.186226349   0.186226349



     Writing output data file o2.save
     NEW-OLD atomic charge density approx. for the potential

     total cpu time spent up to now is        4.2 secs

     per-process dynamical memory:    27.8 Mb

     Self-consistent Calculation

     iteration #  1     ecut=    25.00 Ry     beta=0.20
     Davidson diagonalization with overlap
     ethr =  1.00E-06,  avg # of iterations =  4.0

     negative rho (up, down):  0.000E+00 1.929E-04

 ==============================================================================
     atom number    1 relative position :    0.0138   0.0138   0.0138
     charge :     3.462395
     magnetization :          0.629603    0.000000    0.000000
     magnetization/charge:    0.181840    0.000000    0.000000
     polar coord.: r, theta, phi [deg] :     0.629603   89.999993    0.000007

 ==============================================================================

 ==============================================================================
     atom number    2 relative position :    0.1862   0.1862   0.1862
     charge :     3.455301
     magnetization :          0.628884    0.000002    0.000002
     magnetization/charge:    0.182006    0.000000    0.000000
     polar coord.: r, theta, phi [deg] :     0.628884   89.999850    0.000150

 ==============================================================================

     total cpu time spent up to now is        4.3 secs

     total energy              =     -63.47594375 Ry
     Harris-Foulkes estimate   =     -63.47640512 Ry
     estimated scf accuracy    <       0.00320345 Ry

     total magnetization       =     1.96     0.00     0.00 Bohr mag/cell
     absolute magnetization    =     2.01 Bohr mag/cell

     iteration #  2     ecut=    25.00 Ry     beta=0.20
     Davidson diagonalization with overlap
     ethr =  2.67E-05,  avg # of iterations =  1.0

     negative rho (up, down):  0.000E+00 5.530E-03

 ==============================================================================
     atom number    1 relative position :    0.0138   0.0138   0.0138
     charge :     3.475712
     magnetization :          0.632351    0.000001    0.000001
     magnetization/charge:    0.181934    0.000000    0.000000
     polar coord.: r, theta, phi [deg] :     0.632351   89.999943    0.000057

 ==============================================================================

 ==============================================================================
     atom number    2 relative position :    0.1862   0.1862   0.1862
     charge :     3.468629
     magnetization :          0.631594    0.000000    0.000000
     magnetization/charge:    0.182087    0.000000    0.000000
     polar coord.: r, theta, phi [deg] :     0.631594   89.999971    0.000029

 ==============================================================================

     total cpu time spent up to now is        4.5 secs

     total energy              =     -63.47571766 Ry
     Harris-Foulkes estimate   =     -63.47601001 Ry
     estimated scf accuracy    <       0.00145923 Ry

     total magnetization       =     1.96     0.00     0.00 Bohr mag/cell
     absolute magnetization    =     2.01 Bohr mag/cell

     iteration #  3     ecut=    25.00 Ry     beta=0.20
     Davidson diagonalization with overlap
     ethr =  1.22E-05,  avg # of iterations =  2.0

     negative rho (up, down):  5.531E-06 1.093E-02

 ==============================================================================
     atom number    1 relative position :    0.0138   0.0138   0.0138
     charge :     3.473534
     magnetization :          0.631430    0.000001    0.000001
     magnetization/charge:    0.181783    0.000000    0.000000
     polar coord.: r, theta, phi [deg] :     0.631430   89.999913    0.000087

 ==============================================================================

 ==============================================================================
     atom number    2 relative position :    0.1862   0.1862   0.1862
     charge :     3.466395
     magnetization :          0.630691   -0.000000   -0.000000
     magnetization/charge:    0.181944   -0.000000   -0.000000
     polar coord.: r, theta, phi [deg] :     0.630691   90.000034   -0.000034

 ==============================================================================

     total cpu time spent up to now is        4.6 secs

     total energy              =     -63.47599123 Ry
     Harris-Foulkes estimate   =     -63.47594468 Ry
     estimated scf accuracy    <       0.00011312 Ry

     total magnetization       =     1.96     0.00     0.00 Bohr mag/cell
     absolute magnetization    =     2.01 Bohr mag/cell

     iteration #  4     ecut=    25.00 Ry     beta=0.20
     Davidson diagonalization with overlap
     ethr =  9.43E-07,  avg # of iterations =  2.0

     negative rho (up, down):  2.044E-06 8.959E-03

 ==============================================================================
     atom number    1 relative position :    0.0138   0.0138   0.0138
     charge :     3.474890
     magnetization :          0.631658    0.000001    0.000001
     magnetization/charge:    0.181778    0.000000    0.000000
     polar coord.: r, theta, phi [deg] :     0.631658   89.999926    0.000074

 ==============================================================================

 ==============================================================================
     atom number    2 relative position :    0.1862   0.1862   0.1862
     charge :     3.467807
     magnetization :          0.630892   -0.000000   -0.000000
     magnetization/charge:    0.181928   -0.000000   -0.000000
     polar coord.: r, theta, phi [deg] :     0.630892   90.000017   -0.000017

 ==============================================================================

     total cpu time spent up to now is        4.8 secs

     total energy              =     -63.47603183 Ry
     Harris-Foulkes estimate   =     -63.47600968 Ry
     estimated scf accuracy    <       0.00000900 Ry

     total magnetization       =     1.97     0.00     0.00 Bohr mag/cell
     absolute magnetization    =     2.01 Bohr mag/cell

     iteration #  5     ecut=    25.00 Ry     beta=0.20
     Davidson diagonalization with overlap
     ethr =  7.50E-08,  avg # of iterations =  2.0

     negative rho (up, down):  3.769E-08 6.430E-03

 ==============================================================================
     atom number    1 relative position :    0.0138   0.0138   0.0138
     charge :     3.474038
     magnetization :          0.631185    0.000001    0.000001
     magnetization/charge:    0.181686    0.000000    0.000000
     polar coord.: r, theta, phi [deg] :     0.631185   89.999954    0.000046

 ==============================================================================

 ==============================================================================
     atom number    2 relative position :    0.1862   0.1862   0.1862
     charge :     3.466953
     magnetization :          0.630429    0.000000    0.000000
     magnetization/charge:    0.181839    0.000000    0.000000
     polar coord.: r, theta, phi [deg] :     0.630429   89.999960    0.000040

 ==============================================================================

     total cpu time spent up to now is        4.9 secs

     total energy              =     -63.47605153 Ry
     Harris-Foulkes estimate   =     -63.47603475 Ry
     estimated scf accuracy    <       0.00000295 Ry

     total magnetization       =     1.97     0.00     0.00 Bohr mag/cell
     absolute magnetization    =     2.01 Bohr mag/cell

     iteration #  6     ecut=    25.00 Ry     beta=0.20
     Davidson diagonalization with overlap
     ethr =  2.46E-08,  avg # of iterations =  2.0

 ==============================================================================
     atom number    1 relative position :    0.0138   0.0138   0.0138
     charge :     3.474606
     magnetization :          0.631114    0.000000    0.000000
     magnetization/charge:    0.181636    0.000000    0.000000
     polar coord.: r, theta, phi [deg] :     0.631114   89.999963    0.000037

 ==============================================================================

 ==============================================================================
     atom number    2 relative position :    0.1862   0.1862   0.1862
     charge :     3.467489
     magnetization :          0.630369   -0.000000   -0.000000
     magnetization/charge:    0.181794   -0.000000   -0.000000
     polar coord.: r, theta, phi [deg] :     0.630369   90.000030   -0.000030

 ==============================================================================

     total cpu time spent up to now is        5.1 secs

     End of self-consistent calculation

          k = 0.0000 0.0000 0.0000 (   895 PWs)   bands (ev):

   -30.6962 -29.5003 -17.2943 -15.4924 -10.7773 -10.6598 -10.6598  -9.9002
    -8.7555  -8.7555  -3.8307  -3.8307  -1.5368  -1.5368   1.9521   2.2365
     7.1678   8.0711   9.5962   9.5962

     the Fermi energy is    -2.6838 ev

!    total energy              =     -63.47609379 Ry
     Harris-Foulkes estimate   =     -63.47605276 Ry
     estimated scf accuracy    <       0.00000046 Ry

     The total energy is the sum of the following terms:

     one-electron contribution =     -64.19723248 Ry
     hartree contribution      =      35.08498364 Ry
     xc contribution           =     -13.66699173 Ry
     ewald contribution        =     -20.69356493 Ry
     smearing contrib. (-TS)   =      -0.00328829 Ry

     total magnetization       =     1.97     0.00     0.00 Bohr mag/cell
     absolute magnetization    =     2.01 Bohr mag/cell

     convergence has been achieved in   6 iterations

     Forces acting on atoms (Ry/au):

     atom    1 type  1   force =    -0.06666942   -0.06666919   -0.06666919
     atom    2 type  2   force =     0.06666942    0.06666919    0.06666919

     Total force =     0.163306     Total SCF correction =     0.000563

     number of scf cycles    =   4
     number of bfgs steps    =   2

     energy   old            =     -63.4747081458 Ry
     energy   new            =     -63.4760937949 Ry

     CASE: energy  _new < energy  _old

     new trust radius        =       0.0345938599 bohr
     new conv_thr            =       0.0000001386 Ry


ATOMIC_POSITIONS (alat)
O1       0.011111131   0.011110190   0.011110190
O2       0.188888869   0.188889810   0.188889810



     Writing output data file o2.save
     NEW-OLD atomic charge density approx. for the potential

     total cpu time spent up to now is        5.2 secs

     per-process dynamical memory:    27.8 Mb

     Self-consistent Calculation

     iteration #  1     ecut=    25.00 Ry     beta=0.20
     Davidson diagonalization with overlap
     ethr =  1.00E-06,  avg # of iterations =  4.0

 ==============================================================================
     atom number    1 relative position :    0.0111   0.0111   0.0111
     charge :     3.482792
     magnetization :          0.632161    0.000000    0.000000
     magnetization/charge:    0.181510    0.000000    0.000000
     polar coord.: r, theta, phi [deg] :     0.632161   89.999961    0.000039

 ==============================================================================

 ==============================================================================
     atom number    2 relative position :    0.1889   0.1889   0.1889
     charge :     3.475975
     magnetization :          0.631443   -0.000000   -0.000000
     magnetization/charge:    0.181659   -0.000000   -0.000000
     polar coord.: r, theta, phi [deg] :     0.631443   90.000009   -0.000009

 ==============================================================================

     total cpu time spent up to now is        5.4 secs

     total energy              =     -63.47928147 Ry
     Harris-Foulkes estimate   =     -63.47941743 Ry
     estimated scf accuracy    <       0.00088618 Ry

     total magnetization       =     1.96     0.00     0.00 Bohr mag/cell
     absolute magnetization    =     2.01 Bohr mag/cell

     iteration #  2     ecut=    25.00 Ry     beta=0.20
     Davidson diagonalization with overlap
     ethr =  7.38E-06,  avg # of iterations =  1.0

     negative rho (up, down):  0.000E+00 7.073E-04

 ==============================================================================
     atom number    1 relative position :    0.0111   0.0111   0.0111
     charge :     3.475910
     magnetization :          0.631184    0.000000    0.000000
     magnetization/charge:    0.181588    0.000000    0.000000
     polar coord.: r, theta, phi [deg] :     0.631184   89.999958    0.000042

 ==============================================================================

 ==============================================================================
     atom number    2 relative position :    0.1889   0.1889   0.1889
     charge :     3.469101
     magnetization :          0.630465    0.000000    0.000000
     magnetization/charge:    0.181737    0.000000    0.000000
     polar coord.: r, theta, phi [deg] :     0.630465   89.999985    0.000015

 ==============================================================================

     total cpu time spent up to now is        5.5 secs

     total energy              =     -63.47919236 Ry
     Harris-Foulkes estimate   =     -63.47930139 Ry
     estimated scf accuracy    <       0.00039448 Ry

     total magnetization       =     1.96     0.00     0.00 Bohr mag/cell
     absolute magnetization    =     2.01 Bohr mag/cell

     iteration #  3     ecut=    25.00 Ry     beta=0.20
     Davidson diagonalization with overlap
     ethr =  3.29E-06,  avg # of iterations =  2.0

     negative rho (up, down):  0.000E+00 4.029E-03

 ==============================================================================
     atom number    1 relative position :    0.0111   0.0111   0.0111
     charge :     3.476650
     magnetization :          0.632050    0.000001    0.000001
     magnetization/charge:    0.181799    0.000000    0.000000
     polar coord.: r, theta, phi [deg] :     0.632050   89.999944    0.000056

 ==============================================================================

 ==============================================================================
     atom number    2 relative position :    0.1889   0.1889   0.1889
     charge :     3.469836
     magnetization :          0.631335    0.000000    0.000000
     magnetization/charge:    0.181950    0.000000    0.000000
     polar coord.: r, theta, phi [deg] :     0.631335   89.999974    0.000026

 ==============================================================================

     total cpu time spent up to now is        5.7 secs

     total energy              =     -63.47930883 Ry
     Harris-Foulkes estimate   =     -63.47925350 Ry
     estimated scf accuracy    <       0.00003128 Ry

     total magnetization       =     1.97     0.00     0.00 Bohr mag/cell
     absolute magnetization    =     2.01 Bohr mag/cell

     iteration #  4     ecut=    25.00 Ry     beta=0.20
     Davidson diagonalization with overlap
     ethr =  2.61E-07,  avg # of iterations =  2.0

     negative rho (up, down):  0.000E+00 2.551E-03

 ==============================================================================
     atom number    1 relative position :    0.0111   0.0111   0.0111
     charge :     3.476166
     magnetization :          0.632090    0.000001    0.000001
     magnetization/charge:    0.181835    0.000000    0.000000
     polar coord.: r, theta, phi [deg] :     0.632090   89.999955    0.000045

 ==============================================================================

 ==============================================================================
     atom number    2 relative position :    0.1889   0.1889   0.1889
     charge :     3.469357
     magnetization :          0.631375    0.000001    0.000001
     magnetization/charge:    0.181986    0.000000    0.000000
     polar coord.: r, theta, phi [deg] :     0.631375   89.999952    0.000048

 ==============================================================================

     total cpu time spent up to now is        5.8 secs

     total energy              =     -63.47929528 Ry
     Harris-Foulkes estimate   =     -63.47931345 Ry
     estimated scf accuracy    <       0.00000115 Ry

     total magnetization       =     1.96     0.00     0.00 Bohr mag/cell
     absolute magnetization    =     2.01 Bohr mag/cell

     iteration #  5     ecut=    25.00 Ry     beta=0.20
     Davidson diagonalization with overlap
     ethr =  9.56E-09,  avg # of iterations =  2.0

     negative rho (up, down):  0.000E+00 1.222E-03

 ==============================================================================
     atom number    1 relative position :    0.0111   0.0111   0.0111
     charge :     3.476506
     magnetization :          0.632374    0.000000    0.000000
     magnetization/charge:    0.181899    0.000000    0.000000
     polar coord.: r, theta, phi [deg] :     0.632374   89.999958    0.000042

 ==============================================================================

 ==============================================================================
     atom number    2 relative position :    0.1889   0.1889   0.1889
     charge :     3.469696
     magnetization :          0.631662    0.000001    0.000001
     magnetization/charge:    0.182051    0.000000    0.000000
     polar coord.: r, theta, phi [deg] :     0.631662   89.999950    0.000050

 ==============================================================================

     total cpu time spent up to now is        6.0 secs

     total energy              =     -63.47928411 Ry
     Harris-Foulkes estimate   =     -63.47929592 Ry
     estimated scf accuracy    <       0.00000075 Ry

     total magnetization       =     1.96     0.00     0.00 Bohr mag/cell
     absolute magnetization    =     2.01 Bohr mag/cell

     iteration #  6     ecut=    25.00 Ry     beta=0.20
     Davidson diagonalization with overlap
     ethr =  6.28E-09,  avg # of iterations =  2.0

 ==============================================================================
     atom number    1 relative position :    0.0111   0.0111   0.0111
     charge :     3.476487
     magnetization :          0.632534    0.000001    0.000001
     magnetization/charge:    0.181946    0.000000    0.000000
     polar coord.: r, theta, phi [deg] :     0.632534   89.999939    0.000061

 ==============================================================================

 ==============================================================================
     atom number    2 relative position :    0.1889   0.1889   0.1889
     charge :     3.469675
     magnetization :          0.631823    0.000000    0.000000
     magnetization/charge:    0.182099    0.000000    0.000000
     polar coord.: r, theta, phi [deg] :     0.631823   89.999987    0.000013

 ==============================================================================

     total cpu time spent up to now is        6.1 secs

     End of self-consistent calculation

          k = 0.0000 0.0000 0.0000 (   895 PWs)   bands (ev):

   -29.8374 -28.6177 -17.5633 -15.7599 -10.6413 -10.2649 -10.2649  -9.7920
    -8.3585  -8.3585  -4.0801  -4.0801  -1.7955  -1.7955   1.9749   2.2614
     6.1031   7.0483   9.6278   9.6278

     the Fermi energy is    -2.9378 ev

!    total energy              =     -63.47932191 Ry
     Harris-Foulkes estimate   =     -63.47928436 Ry
     estimated scf accuracy    <       0.00000003 Ry

     The total energy is the sum of the following terms:

     one-electron contribution =     -62.68812334 Ry
     hartree contribution      =      34.37984135 Ry
     xc contribution           =     -13.60479413 Ry
     ewald contribution        =     -21.56288080 Ry
     smearing contrib. (-TS)   =      -0.00336498 Ry

     total magnetization       =     1.96     0.00     0.00 Bohr mag/cell
     absolute magnetization    =     2.01 Bohr mag/cell

     convergence has been achieved in   6 iterations

     Forces acting on atoms (Ry/au):

     atom    1 type  1   force =     0.00923668    0.00923676    0.00923676
     atom    2 type  2   force =    -0.00923668   -0.00923676   -0.00923676

     Total force =     0.022625     Total SCF correction =     0.000392

     number of scf cycles    =   5
     number of bfgs steps    =   3

     energy   old            =     -63.4760937949 Ry
     energy   new            =     -63.4793219078 Ry

     CASE: energy  _new < energy  _old

     new trust radius        =       0.0042096043 bohr
     new conv_thr            =       0.0000000924 Ry


ATOMIC_POSITIONS (alat)
O1       0.011435075   0.011434301   0.011434301
O2       0.188564925   0.188565699   0.188565699



     Writing output data file o2.save
     NEW-OLD atomic charge density approx. for the potential

     total cpu time spent up to now is        7.3 secs

     per-process dynamical memory:    27.8 Mb

     Self-consistent Calculation

     iteration #  1     ecut=    25.00 Ry     beta=0.20
     Davidson diagonalization with overlap
     ethr =  1.00E-06,  avg # of iterations =  3.0

 ==============================================================================
     atom number    1 relative position :    0.0114   0.0114   0.0114
     charge :     3.475660
     magnetization :          0.632392    0.000001    0.000001
     magnetization/charge:    0.181949    0.000000    0.000000
     polar coord.: r, theta, phi [deg] :     0.632392   89.999942    0.000058

 ==============================================================================

 ==============================================================================
     atom number    2 relative position :    0.1886   0.1886   0.1886
     charge :     3.468815
     magnetization :          0.631678    0.000000    0.000000
     magnetization/charge:    0.182102    0.000000    0.000000
     polar coord.: r, theta, phi [deg] :     0.631678   89.999985    0.000015

 ==============================================================================

     total cpu time spent up to now is        7.4 secs

     total energy              =     -63.47939808 Ry
     Harris-Foulkes estimate   =     -63.47939948 Ry
     estimated scf accuracy    <       0.00001210 Ry

     total magnetization       =     1.96     0.00     0.00 Bohr mag/cell
     absolute magnetization    =     2.01 Bohr mag/cell

     iteration #  2     ecut=    25.00 Ry     beta=0.20
     Davidson diagonalization with overlap
     ethr =  1.01E-07,  avg # of iterations =  1.0

 ==============================================================================
     atom number    1 relative position :    0.0114   0.0114   0.0114
     charge :     3.476403
     magnetization :          0.632526    0.000001    0.000001
     magnetization/charge:    0.181948    0.000000    0.000000
     polar coord.: r, theta, phi [deg] :     0.632526   89.999946    0.000054

 ==============================================================================

 ==============================================================================
     atom number    2 relative position :    0.1886   0.1886   0.1886
     charge :     3.469558
     magnetization :          0.631811    0.000000    0.000000
     magnetization/charge:    0.182101    0.000000    0.000000
     polar coord.: r, theta, phi [deg] :     0.631811   89.999982    0.000018

 ==============================================================================

     total cpu time spent up to now is        7.6 secs

     total energy              =     -63.47939751 Ry
     Harris-Foulkes estimate   =     -63.47939847 Ry
     estimated scf accuracy    <       0.00000523 Ry

     total magnetization       =     1.96     0.00     0.00 Bohr mag/cell
     absolute magnetization    =     2.01 Bohr mag/cell

     iteration #  3     ecut=    25.00 Ry     beta=0.20
     Davidson diagonalization with overlap
     ethr =  4.36E-08,  avg # of iterations =  2.0

 ==============================================================================
     atom number    1 relative position :    0.0114   0.0114   0.0114
     charge :     3.476452
     magnetization :          0.632498    0.000001    0.000001
     magnetization/charge:    0.181938    0.000000    0.000000
     polar coord.: r, theta, phi [deg] :     0.632498   89.999949    0.000051

 ==============================================================================

 ==============================================================================
     atom number    2 relative position :    0.1886   0.1886   0.1886
     charge :     3.469605
     magnetization :          0.631784    0.000000    0.000000
     magnetization/charge:    0.182091    0.000000    0.000000
     polar coord.: r, theta, phi [deg] :     0.631784   89.999981    0.000019

 ==============================================================================

     total cpu time spent up to now is        7.7 secs

     total energy              =     -63.47939729 Ry
     Harris-Foulkes estimate   =     -63.47939824 Ry
     estimated scf accuracy    <       0.00000045 Ry

     total magnetization       =     1.96     0.00     0.00 Bohr mag/cell
     absolute magnetization    =     2.01 Bohr mag/cell

     iteration #  4     ecut=    25.00 Ry     beta=0.20
     Davidson diagonalization with overlap
     ethr =  3.79E-09,  avg # of iterations =  2.0

 ==============================================================================
     atom number    1 relative position :    0.0114   0.0114   0.0114
     charge :     3.476292
     magnetization :          0.632424    0.000000    0.000000
     magnetization/charge:    0.181925    0.000000    0.000000
     polar coord.: r, theta, phi [deg] :     0.632424   89.999955    0.000045

 ==============================================================================

 ==============================================================================
     atom number    2 relative position :    0.1886   0.1886   0.1886
     charge :     3.469450
     magnetization :          0.631708    0.000000    0.000000
     magnetization/charge:    0.182077    0.000000    0.000000
     polar coord.: r, theta, phi [deg] :     0.631708   89.999984    0.000016

 ==============================================================================

     total cpu time spent up to now is        7.8 secs

     End of self-consistent calculation

          k = 0.0000 0.0000 0.0000 (   895 PWs)   bands (ev):

   -29.9361 -28.7198 -17.5293 -15.7250 -10.6564 -10.3092 -10.3092  -9.8023
    -8.4032  -8.4032  -4.0492  -4.0492  -1.7632  -1.7632   2.0048   2.2896
     6.2311   7.1745   9.6266   9.6266

     the Fermi energy is    -2.9062 ev

!    total energy              =     -63.47939917 Ry
     Harris-Foulkes estimate   =     -63.47939734 Ry
     estimated scf accuracy    <       0.00000006 Ry

     The total energy is the sum of the following terms:

     one-electron contribution =     -62.86632872 Ry
     hartree contribution      =      34.46237407 Ry
     xc contribution           =     -13.61180494 Ry
     ewald contribution        =     -21.46028634 Ry
     smearing contrib. (-TS)   =      -0.00335323 Ry

     total magnetization       =     1.97     0.00     0.00 Bohr mag/cell
     absolute magnetization    =     2.01 Bohr mag/cell

     convergence has been achieved in   4 iterations

     Forces acting on atoms (Ry/au):

     atom    1 type  1   force =     0.00106037    0.00106033    0.00106033
     atom    2 type  2   force =    -0.00106037   -0.00106033   -0.00106033

     Total force =     0.002597     Total SCF correction =     0.000149

     number of scf cycles    =   6
     number of bfgs steps    =   4

     energy   old            =     -63.4793219078 Ry
     energy   new            =     -63.4793991703 Ry

     CASE: energy  _new < energy  _old

     new trust radius        =       0.0005459167 bohr
     new conv_thr            =       0.0000000100 Ry


ATOMIC_POSITIONS (alat)
O1       0.011477089   0.011476331   0.011476331
O2       0.188522911   0.188523669   0.188523669



     Writing output data file o2.save
     NEW-OLD atomic charge density approx. for the potential

     total cpu time spent up to now is        8.0 secs

     per-process dynamical memory:    27.8 Mb

     Self-consistent Calculation

     iteration #  1     ecut=    25.00 Ry     beta=0.20
     Davidson diagonalization with overlap
     ethr =  1.00E-06,  avg # of iterations =  2.0

     Threshold (ethr) on eigenvalues was too large:
     Diagonalizing with lowered threshold

     Davidson diagonalization with overlap
     ethr =  3.15E-09,  avg # of iterations =  1.0

 ==============================================================================
     atom number    1 relative position :    0.0115   0.0115   0.0115
     charge :     3.476209
     magnetization :          0.632409    0.000000    0.000000
     magnetization/charge:    0.181925    0.000000    0.000000
     polar coord.: r, theta, phi [deg] :     0.632409   89.999955    0.000045

 ==============================================================================

 ==============================================================================
     atom number    2 relative position :    0.1885   0.1885   0.1885
     charge :     3.469360
     magnetization :          0.631693    0.000000    0.000000
     magnetization/charge:    0.182078    0.000000    0.000000
     polar coord.: r, theta, phi [deg] :     0.631693   89.999985    0.000015

 ==============================================================================

     total cpu time spent up to now is        8.2 secs

     total energy              =     -63.47940029 Ry
     Harris-Foulkes estimate   =     -63.47940036 Ry
     estimated scf accuracy    <       0.00000037 Ry

     total magnetization       =     1.97     0.00     0.00 Bohr mag/cell
     absolute magnetization    =     2.01 Bohr mag/cell

     iteration #  2     ecut=    25.00 Ry     beta=0.20
     Davidson diagonalization with overlap
     ethr =  3.09E-09,  avg # of iterations =  1.0

 ==============================================================================
     atom number    1 relative position :    0.0115   0.0115   0.0115
     charge :     3.476353
     magnetization :          0.632429    0.000000    0.000000
     magnetization/charge:    0.181923    0.000000    0.000000
     polar coord.: r, theta, phi [deg] :     0.632429   89.999956    0.000044

 ==============================================================================

 ==============================================================================
     atom number    2 relative position :    0.1885   0.1885   0.1885
     charge :     3.469503
     magnetization :          0.631713    0.000000    0.000000
     magnetization/charge:    0.182076    0.000000    0.000000
     polar coord.: r, theta, phi [deg] :     0.631713   89.999987    0.000013

 ==============================================================================

     total cpu time spent up to now is        8.4 secs

     total energy              =     -63.47940025 Ry
     Harris-Foulkes estimate   =     -63.47940030 Ry
     estimated scf accuracy    <       0.00000016 Ry

     total magnetization       =     1.97     0.00     0.00 Bohr mag/cell
     absolute magnetization    =     2.01 Bohr mag/cell

     iteration #  3     ecut=    25.00 Ry     beta=0.20
     Davidson diagonalization with overlap
     ethr =  1.30E-09,  avg # of iterations =  2.0

 ==============================================================================
     atom number    1 relative position :    0.0115   0.0115   0.0115
     charge :     3.476340
     magnetization :          0.632412    0.000000    0.000000
     magnetization/charge:    0.181919    0.000000    0.000000
     polar coord.: r, theta, phi [deg] :     0.632412   89.999961    0.000039

 ==============================================================================

 ==============================================================================
     atom number    2 relative position :    0.1885   0.1885   0.1885
     charge :     3.469492
     magnetization :          0.631696    0.000000    0.000000
     magnetization/charge:    0.182072    0.000000    0.000000
     polar coord.: r, theta, phi [deg] :     0.631696   89.999998    0.000002

 ==============================================================================

     total cpu time spent up to now is        8.5 secs

     End of self-consistent calculation

          k = 0.0000 0.0000 0.0000 (   895 PWs)   bands (ev):

   -29.9500 -28.7338 -17.5259 -15.7220 -10.6593 -10.3159 -10.3159  -9.8053
    -8.4099  -8.4099  -4.0462  -4.0462  -1.7600  -1.7600   2.0072   2.2906
     6.2466   7.1903   9.6252   9.6252

     the Fermi energy is    -2.9031 ev

!    total energy              =     -63.47940029 Ry
     Harris-Foulkes estimate   =     -63.47940028 Ry
     estimated scf accuracy    <          8.9E-09 Ry

     The total energy is the sum of the following terms:

     one-electron contribution =     -62.89024521 Ry
     hartree contribution      =      34.47403561 Ry
     xc contribution           =     -13.61292114 Ry
     ewald contribution        =     -21.44691844 Ry
     smearing contrib. (-TS)   =      -0.00335112 Ry

     total magnetization       =     1.97     0.00     0.00 Bohr mag/cell
     absolute magnetization    =     2.01 Bohr mag/cell

     convergence has been achieved in   3 iterations

     Forces acting on atoms (Ry/au):

     atom    1 type  1   force =     0.00002575    0.00002567    0.00002567
     atom    2 type  2   force =    -0.00002575   -0.00002567   -0.00002567

     Total force =     0.000063     Total SCF correction =     0.000105
     SCF correction compared to forces is large: reduce conv_thr to get better values

     bfgs converged in   7 scf cycles and   5 bfgs steps
     (criteria: energy <  1.0E-04, force <  1.0E-03)

     End of BFGS Geometry Optimization

     Final energy   =     -63.4794002897 Ry
Begin final coordinates

ATOMIC_POSITIONS (alat)
O1       0.011477089   0.011476331   0.011476331
O2       0.188522911   0.188523669   0.188523669
End final coordinates



     Writing output data file o2.save
 
     init_run     :      0.46s CPU      0.48s WALL (       1 calls)
     electrons    :      5.99s CPU      6.05s WALL (       7 calls)
     update_pot   :      0.37s CPU      0.38s WALL (       6 calls)
     forces       :      0.17s CPU      0.18s WALL (       7 calls)

     Called by init_run:
     wfcinit      :      0.01s CPU      0.03s WALL (       1 calls)
     potinit      :      0.06s CPU      0.06s WALL (       1 calls)

     Called by electrons:
     c_bands      :      1.36s CPU      1.37s WALL (      41 calls)
     sum_band     :      2.15s CPU      2.16s WALL (      41 calls)
     v_of_rho     :      1.93s CPU      1.94s WALL (      47 calls)
     newd         :      0.49s CPU      0.49s WALL (      47 calls)
     mix_rho      :      0.20s CPU      0.20s WALL (      41 calls)

     Called by c_bands:
     init_us_2    :      0.02s CPU      0.02s WALL (      83 calls)
     cegterg      :      1.32s CPU      1.33s WALL (      41 calls)

     Called by sum_band:
     sum_band:bec :      0.00s CPU      0.00s WALL (      41 calls)
     addusdens    :      1.54s CPU      1.55s WALL (      41 calls)

     Called by *egterg:
     h_psi        :      0.92s CPU      0.94s WALL (     144 calls)
     s_psi        :      0.02s CPU      0.02s WALL (     144 calls)
     g_psi        :      0.02s CPU      0.02s WALL (     102 calls)
     cdiaghg      :      0.14s CPU      0.16s WALL (     136 calls)

     Called by h_psi:
     add_vuspsi   :      0.02s CPU      0.02s WALL (     144 calls)

     General routines
     calbec       :      0.04s CPU      0.04s WALL (     213 calls)
     fft          :      0.96s CPU      0.96s WALL (    2188 calls)
     ffts         :      0.04s CPU      0.04s WALL (     352 calls)
     fftw         :      0.73s CPU      0.75s WALL (   10344 calls)
     interpolate  :      0.22s CPU      0.22s WALL (     352 calls)
     davcio       :      0.00s CPU      0.00s WALL (       7 calls)
 
     Parallel routines
     fft_scatter  :      0.54s CPU      0.60s WALL (   12884 calls)
 
     PWSCF        :     7.39s CPU         8.58s WALL

 
   This run was terminated on:  17:52:17  29Jun2016            

=------------------------------------------------------------------------------=
   JOB DONE.
=------------------------------------------------------------------------------=
