
     Program PWSCF v.5.4.0 (svn rev. 12782M) starts on 18Aug2016 at 16:13:37 

     This program is part of the open-source Quantum ESPRESSO suite
     for quantum simulation of materials; please cite
         "P. Giannozzi et al., J. Phys.:Condens. Matter 21 395502 (2009);
          URL http://www.quantum-espresso.org", 
     in publications or presentations arising from this work. More details at
     http://www.quantum-espresso.org/quote
 
           HOST :    x86_64-pc-linux-gnu
           ARCH :    x86_64
             CC :    icc
            CPP :    cpp
            F90 :    ifort
            F77 :    ifort
         DFLAGS :    -D__INTEL -D__FFTW -D__MPI -D__PARA -D__HDF5
      BLAS LIBS :    -lmkl_intel_lp64  -lmkl_sequential -lmkl_core
    LAPACK LIBS :    
       FFT LIBS :    
      MASS LIBS :    

     Parallel version (MPI), running on     2 processors
     R & G space division:  proc/nbgrp/npool/nimage =       2
     Waiting for input...
     Reading input from standard input
     Message from routine read_cards :
     DEPRECATED: no units specified in ATOMIC_POSITIONS card
     Message from routine read_cards :
     ATOMIC_POSITIONS: units set to alat

     Current dimensions of program PWSCF are:
     Max number of different atomic species (ntypx) = 10
     Max number of k-points (npk) =  40000
     Max angular momentum in pseudopotentials (lmaxx) =  3
               file O.pbe-rrkjus.UPF: wavefunction(s)  2S renormalized
               file O.pbe-rrkjus.UPF: wavefunction(s)  2S renormalized

     Fixed quantization axis for GGA:     1.000000    0.000000    0.000000

     Subspace diagonalization in iterative solution of the eigenvalue problem:
     a serial algorithm will be used

 
     Parallelization info
     --------------------
     sticks:   dense  smooth     PW     G-vecs:    dense   smooth      PW
     Min         442     218     54                10002     3560     446
     Max         443     219     55                10003     3563     449
     Sum         885     437    109                20005     7123     895
 


     bravais-lattice index     =            1
     lattice parameter (alat)  =       7.5000  a.u.
     unit-cell volume          =     421.8750 (a.u.)^3
     number of atoms/cell      =            2
     number of atomic types    =            2
     number of electrons       =        12.00
     number of Kohn-Sham states=           20
     kinetic-energy cutoff     =      25.0000  Ry
     charge density cutoff     =     200.0000  Ry
     convergence threshold     =      1.0E-06
     mixing beta               =       0.2000
     number of iterations used =            8  plain     mixing
     Exchange-correlation      =  SLA  PW   PBE  PBE ( 1  4  3  4 0 0)
     nstep                     =           50

     Noncollinear calculation without spin-orbit


     celldm(1)=   7.500000  celldm(2)=   0.000000  celldm(3)=   0.000000
     celldm(4)=   0.000000  celldm(5)=   0.000000  celldm(6)=   0.000000

     crystal axes: (cart. coord. in units of alat)
               a(1) = (   1.000000   0.000000   0.000000 )  
               a(2) = (   0.000000   1.000000   0.000000 )  
               a(3) = (   0.000000   0.000000   1.000000 )  

     reciprocal axes: (cart. coord. in units 2 pi/alat)
               b(1) = (  1.000000  0.000000  0.000000 )  
               b(2) = (  0.000000  1.000000  0.000000 )  
               b(3) = (  0.000000  0.000000  1.000000 )  


     PseudoPot. # 1 for O  read from file:
     /home/nvarini/espresso_hdf5/espresso/pseudo/O.pbe-rrkjus.UPF
     MD5 check sum: 390ba29e75625707450f3bd3f0eb6be9
     Pseudo is Ultrasoft, Zval =  6.0
     Generated by new atomic code, or converted to UPF format
     Using radial grid of 1269 points,  4 beta functions with: 
                l(1) =   0
                l(2) =   0
                l(3) =   1
                l(4) =   1
     Q(r) pseudized with 0 coefficients 


     PseudoPot. # 2 for O  read from file:
     /home/nvarini/espresso_hdf5/espresso/pseudo/O.pbe-rrkjus.UPF
     MD5 check sum: 390ba29e75625707450f3bd3f0eb6be9
     Pseudo is Ultrasoft, Zval =  6.0
     Generated by new atomic code, or converted to UPF format
     Using radial grid of 1269 points,  4 beta functions with: 
                l(1) =   0
                l(2) =   0
                l(3) =   1
                l(4) =   1
     Q(r) pseudized with 0 coefficients 


     atomic species   valence    mass     pseudopotential
        O1             6.00    16.00000     O ( 1.00)
        O2             6.00    16.00000     O ( 1.00)

      2 Sym. Ops. (no inversion) found



   Cartesian axes

     site n.     atom                  positions (alat units)
         1           O1  tau(   1) = (   0.0000000   0.0000000   0.0000000  )
         2           O2  tau(   2) = (   0.2000000   0.2000000   0.2000000  )

     number of k points=     1  gaussian smearing, width (Ry)=  0.0500
                       cart. coord. in units 2pi/alat
        k(    1) = (   0.0000000   0.0000000   0.0000000), wk =   1.0000000

     Dense  grid:    20005 G-vectors     FFT dimensions: (  36,  36,  36)

     Smooth grid:     7123 G-vectors     FFT dimensions: (  24,  24,  24)

     Estimated max dynamical RAM per process >      20.30Mb

     Estimated total allocated dynamical RAM >      40.59Mb
     Generating pointlists ...
     new r_m :   0.1429 (alat units)  1.0717 (a.u.) for type    1
     new r_m :   0.1429 (alat units)  1.0717 (a.u.) for type    2

     Initial potential from superposition of free atoms

     starting charge   12.00000, renormalised to   12.00000

 ==============================================================================
     atom number    1 relative position :    0.0000   0.0000   0.0000
     charge :     3.441447
     magnetization :          1.720724    0.000000    0.000000
     magnetization/charge:    0.500000    0.000000    0.000000
     polar coord.: r, theta, phi [deg] :     1.720724   90.000000    0.000000

 ==============================================================================

 ==============================================================================
     atom number    2 relative position :    0.2000   0.2000   0.2000
     charge :     3.435534
     magnetization :          1.717767    0.000000    0.000000
     magnetization/charge:    0.500000    0.000000    0.000000
     polar coord.: r, theta, phi [deg] :     1.717767   90.000000    0.000000

 ==============================================================================
     Starting wfc are   16 randomized atomic wfcs +    4 random wfc

     total cpu time spent up to now is        0.5 secs

     per-process dynamical memory:    20.3 Mb

     Self-consistent Calculation

     iteration #  1     ecut=    25.00 Ry     beta=0.20
     Davidson diagonalization with overlap
     ethr =  1.00E-02,  avg # of iterations =  4.0

 ==============================================================================
     atom number    1 relative position :    0.0000   0.0000   0.0000
     charge :     3.446261
     magnetization :          1.518276    0.000010    0.000010
     magnetization/charge:    0.440558    0.000003    0.000003
     polar coord.: r, theta, phi [deg] :     1.518276   89.999628    0.000372

 ==============================================================================

 ==============================================================================
     atom number    2 relative position :    0.2000   0.2000   0.2000
     charge :     3.440385
     magnetization :          1.515748   -0.000018   -0.000018
     magnetization/charge:    0.440575   -0.000005   -0.000005
     polar coord.: r, theta, phi [deg] :     1.515748   90.000697   -0.000697

 ==============================================================================

     total cpu time spent up to now is        0.7 secs

     total energy              =     -63.26180431 Ry
     Harris-Foulkes estimate   =     -63.17438185 Ry
     estimated scf accuracy    <       0.17750223 Ry

     total magnetization       =     2.00     0.00     0.00 Bohr mag/cell
     absolute magnetization    =     2.09 Bohr mag/cell

     iteration #  2     ecut=    25.00 Ry     beta=0.20
     Davidson diagonalization with overlap
     ethr =  1.48E-03,  avg # of iterations =  5.0

     negative rho (up, down):  6.203E-05 3.978E-02

 ==============================================================================
     atom number    1 relative position :    0.0000   0.0000   0.0000
     charge :     3.462732
     magnetization :          0.738065    0.000004    0.000004
     magnetization/charge:    0.213145    0.000001    0.000001
     polar coord.: r, theta, phi [deg] :     0.738065   89.999693    0.000307

 ==============================================================================

 ==============================================================================
     atom number    2 relative position :    0.2000   0.2000   0.2000
     charge :     3.456971
     magnetization :          0.737336   -0.000013   -0.000013
     magnetization/charge:    0.213290   -0.000004   -0.000004
     polar coord.: r, theta, phi [deg] :     0.737336   90.000978   -0.000978

 ==============================================================================

     total cpu time spent up to now is        0.8 secs

     total energy              =     -63.41643258 Ry
     Harris-Foulkes estimate   =     -63.26300488 Ry
     estimated scf accuracy    <       0.11286851 Ry

     total magnetization       =     2.00    -0.00    -0.00 Bohr mag/cell
     absolute magnetization    =     2.07 Bohr mag/cell

     iteration #  3     ecut=    25.00 Ry     beta=0.20
     Davidson diagonalization with overlap
     ethr =  9.41E-04,  avg # of iterations =  1.0

     negative rho (up, down):  3.389E-05 2.780E-02

 ==============================================================================
     atom number    1 relative position :    0.0000   0.0000   0.0000
     charge :     3.456415
     magnetization :          0.662969   -0.000007   -0.000007
     magnetization/charge:    0.191808   -0.000002   -0.000002
     polar coord.: r, theta, phi [deg] :     0.662969   90.000608   -0.000608

 ==============================================================================

 ==============================================================================
     atom number    2 relative position :    0.2000   0.2000   0.2000
     charge :     3.450425
     magnetization :          0.662552   -0.000000   -0.000000
     magnetization/charge:    0.192020   -0.000000   -0.000000
     polar coord.: r, theta, phi [deg] :     0.662552   90.000010   -0.000010

 ==============================================================================

     total cpu time spent up to now is        1.0 secs

     total energy              =     -63.42543544 Ry
     Harris-Foulkes estimate   =     -63.42524628 Ry
     estimated scf accuracy    <       0.00334540 Ry

     total magnetization       =     1.98    -0.00    -0.00 Bohr mag/cell
     absolute magnetization    =     2.03 Bohr mag/cell

     iteration #  4     ecut=    25.00 Ry     beta=0.20
     Davidson diagonalization with overlap
     ethr =  2.79E-05,  avg # of iterations =  3.0

     negative rho (up, down):  1.068E-05 1.944E-02

 ==============================================================================
     atom number    1 relative position :    0.0000   0.0000   0.0000
     charge :     3.455204
     magnetization :          0.639466   -0.000007   -0.000007
     magnetization/charge:    0.185073   -0.000002   -0.000002
     polar coord.: r, theta, phi [deg] :     0.639466   90.000645   -0.000645

 ==============================================================================

 ==============================================================================
     atom number    2 relative position :    0.2000   0.2000   0.2000
     charge :     3.449384
     magnetization :          0.639023    0.000006    0.000006
     magnetization/charge:    0.185257    0.000002    0.000002
     polar coord.: r, theta, phi [deg] :     0.639023   89.999446    0.000554

 ==============================================================================

     total cpu time spent up to now is        1.1 secs

     total energy              =     -63.42609057 Ry
     Harris-Foulkes estimate   =     -63.42589960 Ry
     estimated scf accuracy    <       0.00016381 Ry

     total magnetization       =     1.96    -0.00    -0.00 Bohr mag/cell
     absolute magnetization    =     2.01 Bohr mag/cell

     iteration #  5     ecut=    25.00 Ry     beta=0.20
     Davidson diagonalization with overlap
     ethr =  1.37E-06,  avg # of iterations = 12.0

     negative rho (up, down):  1.532E-06 1.316E-02

 ==============================================================================
     atom number    1 relative position :    0.0000   0.0000   0.0000
     charge :     3.455342
     magnetization :          0.629536   -0.000003   -0.000003
     magnetization/charge:    0.182192   -0.000001   -0.000001
     polar coord.: r, theta, phi [deg] :     0.629536   90.000263   -0.000263

 ==============================================================================

 ==============================================================================
     atom number    2 relative position :    0.2000   0.2000   0.2000
     charge :     3.449339
     magnetization :          0.629226    0.000001    0.000001
     magnetization/charge:    0.182419    0.000000    0.000000
     polar coord.: r, theta, phi [deg] :     0.629226   89.999882    0.000118

 ==============================================================================

     total cpu time spent up to now is        1.3 secs

     total energy              =     -63.42630401 Ry
     Harris-Foulkes estimate   =     -63.42612565 Ry
     estimated scf accuracy    <       0.00004937 Ry

     total magnetization       =     1.96    -0.00    -0.00 Bohr mag/cell
     absolute magnetization    =     2.01 Bohr mag/cell

     iteration #  6     ecut=    25.00 Ry     beta=0.20
     Davidson diagonalization with overlap
     ethr =  4.11E-07,  avg # of iterations =  2.0

     negative rho (up, down):  2.450E-08 9.238E-03

 ==============================================================================
     atom number    1 relative position :    0.0000   0.0000   0.0000
     charge :     3.454925
     magnetization :          0.627138   -0.000001   -0.000001
     magnetization/charge:    0.181520   -0.000000   -0.000000
     polar coord.: r, theta, phi [deg] :     0.627138   90.000079   -0.000079

 ==============================================================================

 ==============================================================================
     atom number    2 relative position :    0.2000   0.2000   0.2000
     charge :     3.449103
     magnetization :          0.626747   -0.000001   -0.000001
     magnetization/charge:    0.181713   -0.000000   -0.000000
     polar coord.: r, theta, phi [deg] :     0.626747   90.000116   -0.000116

 ==============================================================================

     total cpu time spent up to now is        1.4 secs

     total energy              =     -63.42646010 Ry
     Harris-Foulkes estimate   =     -63.42631250 Ry
     estimated scf accuracy    <       0.00001243 Ry

     total magnetization       =     1.96    -0.00    -0.00 Bohr mag/cell
     absolute magnetization    =     2.00 Bohr mag/cell

     iteration #  7     ecut=    25.00 Ry     beta=0.20
     Davidson diagonalization with overlap
     ethr =  1.04E-07,  avg # of iterations =  2.0

 ==============================================================================
     atom number    1 relative position :    0.0000   0.0000   0.0000
     charge :     3.455131
     magnetization :          0.627445    0.000003    0.000003
     magnetization/charge:    0.181598    0.000001    0.000001
     polar coord.: r, theta, phi [deg] :     0.627445   89.999734    0.000266

 ==============================================================================

 ==============================================================================
     atom number    2 relative position :    0.2000   0.2000   0.2000
     charge :     3.449046
     magnetization :          0.627180   -0.000002   -0.000002
     magnetization/charge:    0.181842   -0.000000   -0.000000
     polar coord.: r, theta, phi [deg] :     0.627180   90.000151   -0.000151

 ==============================================================================

     total cpu time spent up to now is        1.6 secs

     End of self-consistent calculation

          k = 0.0000 0.0000 0.0000 (   895 PWs)   bands (ev):

   -26.9501 -25.6486 -18.6031 -16.8098 -10.0748  -9.3267  -8.9647  -8.9646
    -7.0576  -7.0576  -4.9055  -4.9055  -2.6825  -2.6824   1.9186   2.1996
     2.2337   3.1183   9.6706   9.6707

     the Fermi energy is    -3.7940 ev

!    total energy              =     -63.42646500 Ry
     Harris-Foulkes estimate   =     -63.42646402 Ry
     estimated scf accuracy    <       0.00000081 Ry

     The total energy is the sum of the following terms:

     one-electron contribution =     -57.22339807 Ry
     hartree contribution      =      31.81963277 Ry
     xc contribution           =     -13.40024209 Ry
     ewald contribution        =     -24.61854905 Ry
     smearing contrib. (-TS)   =      -0.00390856 Ry

     total magnetization       =     1.96    -0.00    -0.00 Bohr mag/cell
     absolute magnetization    =     2.00 Bohr mag/cell

     convergence has been achieved in   7 iterations

     Forces acting on atoms (Ry/au):

     atom    1 type  1   force =     0.17127599    0.17123041    0.17123041
     atom    2 type  2   force =    -0.17127599   -0.17123041   -0.17123041

     Total force =     0.419464     Total SCF correction =     0.002037

     BFGS Geometry Optimization

     number of scf cycles    =   1
     number of bfgs steps    =   0

     energy   new            =     -63.4264650022 Ry

     new trust radius        =       0.2966060833 bohr
     new conv_thr            =       0.0000010000 Ry


ATOMIC_POSITIONS (alat)
O1       0.022836799   0.022830721   0.022830721
O2       0.177163201   0.177169279   0.177169279



     Writing output data file o2.save
     NEW-OLD atomic charge density approx. for the potential

     total cpu time spent up to now is        1.7 secs

     per-process dynamical memory:    22.7 Mb

     Self-consistent Calculation

     iteration #  1     ecut=    25.00 Ry     beta=0.20
     Davidson diagonalization with overlap
     ethr =  1.00E-06,  avg # of iterations =  6.0

     negative rho (up, down):  0.000E+00 2.133E-02

 ==============================================================================
     atom number    1 relative position :    0.0228   0.0228   0.0228
     charge :     3.395714
     magnetization :          0.598246    0.000002    0.000002
     magnetization/charge:    0.176177    0.000001    0.000001
     polar coord.: r, theta, phi [deg] :     0.598246   89.999765    0.000235

 ==============================================================================

 ==============================================================================
     atom number    2 relative position :    0.1772   0.1772   0.1772
     charge :     3.387422
     magnetization :          0.597866   -0.000002   -0.000002
     magnetization/charge:    0.176496   -0.000001   -0.000001
     polar coord.: r, theta, phi [deg] :     0.597866   90.000204   -0.000204

 ==============================================================================

     total cpu time spent up to now is        1.9 secs

     total energy              =     -63.36470610 Ry
     Harris-Foulkes estimate   =     -63.37306441 Ry
     estimated scf accuracy    <       0.05714204 Ry

     total magnetization       =     1.94    -0.00    -0.00 Bohr mag/cell
     absolute magnetization    =     1.98 Bohr mag/cell

     iteration #  2     ecut=    25.00 Ry     beta=0.20
     Davidson diagonalization with overlap
     ethr =  4.76E-04,  avg # of iterations =  1.0

     negative rho (up, down):  1.061E-04 4.908E-02

 ==============================================================================
     atom number    1 relative position :    0.0228   0.0228   0.0228
     charge :     3.453470
     magnetization :          0.613773   -0.000002   -0.000002
     magnetization/charge:    0.177727   -0.000001   -0.000001
     polar coord.: r, theta, phi [deg] :     0.613773   90.000178   -0.000178

 ==============================================================================

 ==============================================================================
     atom number    2 relative position :    0.1772   0.1772   0.1772
     charge :     3.445290
     magnetization :          0.613033   -0.000001   -0.000001
     magnetization/charge:    0.177934   -0.000000   -0.000000
     polar coord.: r, theta, phi [deg] :     0.613033   90.000131   -0.000131

 ==============================================================================

     total cpu time spent up to now is        2.0 secs

     total energy              =     -63.35968256 Ry
     Harris-Foulkes estimate   =     -63.36581062 Ry
     estimated scf accuracy    <       0.02629733 Ry

     total magnetization       =     1.95    -0.00    -0.00 Bohr mag/cell
     absolute magnetization    =     1.98 Bohr mag/cell

     iteration #  3     ecut=    25.00 Ry     beta=0.20
     Davidson diagonalization with overlap
     ethr =  2.19E-04,  avg # of iterations =  2.0

     negative rho (up, down):  2.996E-04 5.974E-02

 ==============================================================================
     atom number    1 relative position :    0.0228   0.0228   0.0228
     charge :     3.440870
     magnetization :          0.613553   -0.000001   -0.000001
     magnetization/charge:    0.178313   -0.000000   -0.000000
     polar coord.: r, theta, phi [deg] :     0.613553   90.000119   -0.000119

 ==============================================================================

 ==============================================================================
     atom number    2 relative position :    0.1772   0.1772   0.1772
     charge :     3.432410
     magnetization :          0.612744   -0.000002   -0.000002
     magnetization/charge:    0.178517   -0.000001   -0.000001
     polar coord.: r, theta, phi [deg] :     0.612744   90.000216   -0.000216

 ==============================================================================

     total cpu time spent up to now is        2.2 secs

     total energy              =     -63.36468061 Ry
     Harris-Foulkes estimate   =     -63.36381049 Ry
     estimated scf accuracy    <       0.00192496 Ry

     total magnetization       =     1.96    -0.00    -0.00 Bohr mag/cell
     absolute magnetization    =     1.99 Bohr mag/cell

     iteration #  4     ecut=    25.00 Ry     beta=0.20
     Davidson diagonalization with overlap
     ethr =  1.60E-05,  avg # of iterations =  2.0

     negative rho (up, down):  1.751E-04 5.013E-02

 ==============================================================================
     atom number    1 relative position :    0.0228   0.0228   0.0228
     charge :     3.450969
     magnetization :          0.616035   -0.000002   -0.000002
     magnetization/charge:    0.178511   -0.000001   -0.000001
     polar coord.: r, theta, phi [deg] :     0.616035   90.000177   -0.000177

 ==============================================================================

 ==============================================================================
     atom number    2 relative position :    0.1772   0.1772   0.1772
     charge :     3.442709
     magnetization :          0.615131   -0.000002   -0.000002
     magnetization/charge:    0.178676   -0.000001   -0.000001
     polar coord.: r, theta, phi [deg] :     0.615131   90.000190   -0.000190

 ==============================================================================

     total cpu time spent up to now is        2.3 secs

     total energy              =     -63.36495400 Ry
     Harris-Foulkes estimate   =     -63.36517775 Ry
     estimated scf accuracy    <       0.00052439 Ry

     total magnetization       =     1.96    -0.00    -0.00 Bohr mag/cell
     absolute magnetization    =     2.00 Bohr mag/cell

     iteration #  5     ecut=    25.00 Ry     beta=0.20
     Davidson diagonalization with overlap
     ethr =  4.37E-06,  avg # of iterations =  2.0

     negative rho (up, down):  9.968E-05 3.843E-02

 ==============================================================================
     atom number    1 relative position :    0.0228   0.0228   0.0228
     charge :     3.446458
     magnetization :          0.615866   -0.000002   -0.000002
     magnetization/charge:    0.178695   -0.000001   -0.000001
     polar coord.: r, theta, phi [deg] :     0.615866   90.000172   -0.000172

 ==============================================================================

 ==============================================================================
     atom number    2 relative position :    0.1772   0.1772   0.1772
     charge :     3.438266
     magnetization :          0.614929   -0.000002   -0.000002
     magnetization/charge:    0.178849   -0.000001   -0.000001
     polar coord.: r, theta, phi [deg] :     0.614929   90.000224   -0.000224

 ==============================================================================

     total cpu time spent up to now is        2.5 secs

     total energy              =     -63.36512712 Ry
     Harris-Foulkes estimate   =     -63.36510002 Ry
     estimated scf accuracy    <       0.00006629 Ry

     total magnetization       =     1.96    -0.00    -0.00 Bohr mag/cell
     absolute magnetization    =     2.00 Bohr mag/cell

     iteration #  6     ecut=    25.00 Ry     beta=0.20
     Davidson diagonalization with overlap
     ethr =  5.52E-07,  avg # of iterations =  2.0

     negative rho (up, down):  4.608E-05 2.949E-02

 ==============================================================================
     atom number    1 relative position :    0.0228   0.0228   0.0228
     charge :     3.447527
     magnetization :          0.616081   -0.000002   -0.000002
     magnetization/charge:    0.178702   -0.000001   -0.000001
     polar coord.: r, theta, phi [deg] :     0.616081   90.000187   -0.000187

 ==============================================================================

 ==============================================================================
     atom number    2 relative position :    0.1772   0.1772   0.1772
     charge :     3.439256
     magnetization :          0.615168   -0.000002   -0.000002
     magnetization/charge:    0.178867   -0.000001   -0.000001
     polar coord.: r, theta, phi [deg] :     0.615168   90.000210   -0.000210

 ==============================================================================

     total cpu time spent up to now is        2.6 secs

     total energy              =     -63.36527063 Ry
     Harris-Foulkes estimate   =     -63.36515278 Ry
     estimated scf accuracy    <       0.00001344 Ry

     total magnetization       =     1.97    -0.00    -0.00 Bohr mag/cell
     absolute magnetization    =     2.00 Bohr mag/cell

     iteration #  7     ecut=    25.00 Ry     beta=0.20
     Davidson diagonalization with overlap
     ethr =  1.12E-07,  avg # of iterations =  2.0

     negative rho (up, down):  1.853E-05 2.221E-02

 ==============================================================================
     atom number    1 relative position :    0.0228   0.0228   0.0228
     charge :     3.447797
     magnetization :          0.616224   -0.000003   -0.000003
     magnetization/charge:    0.178730   -0.000001   -0.000001
     polar coord.: r, theta, phi [deg] :     0.616224   90.000263   -0.000263

 ==============================================================================

 ==============================================================================
     atom number    2 relative position :    0.1772   0.1772   0.1772
     charge :     3.439498
     magnetization :          0.615313   -0.000001   -0.000001
     magnetization/charge:    0.178896   -0.000000   -0.000000
     polar coord.: r, theta, phi [deg] :     0.615313   90.000123   -0.000123

 ==============================================================================

     total cpu time spent up to now is        2.8 secs

     total energy              =     -63.36542041 Ry
     Harris-Foulkes estimate   =     -63.36527270 Ry
     estimated scf accuracy    <       0.00000225 Ry

     total magnetization       =     1.97    -0.00    -0.00 Bohr mag/cell
     absolute magnetization    =     2.00 Bohr mag/cell

     iteration #  8     ecut=    25.00 Ry     beta=0.20
     Davidson diagonalization with overlap
     ethr =  1.87E-08,  avg # of iterations =  2.0

 ==============================================================================
     atom number    1 relative position :    0.0228   0.0228   0.0228
     charge :     3.448380
     magnetization :          0.616451   -0.000003   -0.000003
     magnetization/charge:    0.178765   -0.000001   -0.000001
     polar coord.: r, theta, phi [deg] :     0.616451   90.000281   -0.000281

 ==============================================================================

 ==============================================================================
     atom number    2 relative position :    0.1772   0.1772   0.1772
     charge :     3.440232
     magnetization :          0.615459   -0.000001   -0.000001
     magnetization/charge:    0.178900   -0.000000   -0.000000
     polar coord.: r, theta, phi [deg] :     0.615459   90.000077   -0.000077

 ==============================================================================

     total cpu time spent up to now is        2.9 secs

     End of self-consistent calculation

          k = 0.0000 0.0000 0.0000 (   895 PWs)   bands (ev):

   -34.1236 -33.0133 -16.3390 -14.5629 -12.2950 -12.2950 -11.2102 -10.4045
   -10.4045 -10.2469  -2.7755  -2.7755  -0.4749  -0.4748   1.8683   2.1570
     9.4907   9.4909  10.0067  10.4831

     the Fermi energy is    -1.6252 ev

!    total energy              =     -63.36562180 Ry
     Harris-Foulkes estimate   =     -63.36542179 Ry
     estimated scf accuracy    <       0.00000052 Ry

     The total energy is the sum of the following terms:

     one-electron contribution =     -69.98770302 Ry
     hartree contribution      =      37.76952668 Ry
     xc contribution           =     -13.91970548 Ry
     ewald contribution        =     -17.22450673 Ry
     smearing contrib. (-TS)   =      -0.00323325 Ry

     total magnetization       =     1.97    -0.00    -0.00 Bohr mag/cell
     absolute magnetization    =     2.00 Bohr mag/cell

     convergence has been achieved in   8 iterations

     Forces acting on atoms (Ry/au):

     atom    1 type  1   force =    -0.54452390   -0.54456433   -0.54456433
     atom    2 type  2   force =     0.54452390    0.54456433    0.54456433

     Total force =     1.333872     Total SCF correction =     0.000759

     number of scf cycles    =   2
     number of bfgs steps    =   1

     energy   old            =     -63.4264650022 Ry
     energy   new            =     -63.3656218007 Ry

     CASE: energy  _new > energy  _old

     new trust radius        =       0.1101971377 bohr
     new conv_thr            =       0.0000010000 Ry


ATOMIC_POSITIONS (alat)
O1       0.008484485   0.008482227   0.008482227
O2       0.191515515   0.191517773   0.191517773



     Writing output data file o2.save
     NEW-OLD atomic charge density approx. for the potential

     total cpu time spent up to now is        3.1 secs

     per-process dynamical memory:    28.9 Mb

     Self-consistent Calculation

     iteration #  1     ecut=    25.00 Ry     beta=0.20
     Davidson diagonalization with overlap
     ethr =  1.00E-06,  avg # of iterations =  5.0

     negative rho (up, down):  0.000E+00 5.466E-03

 ==============================================================================
     atom number    1 relative position :    0.0085   0.0085   0.0085
     charge :     3.513111
     magnetization :          0.619912   -0.000003   -0.000003
     magnetization/charge:    0.176457   -0.000001   -0.000001
     polar coord.: r, theta, phi [deg] :     0.619912   90.000242   -0.000242

 ==============================================================================

 ==============================================================================
     atom number    2 relative position :    0.1915   0.1915   0.1915
     charge :     3.506508
     magnetization :          0.619220   -0.000001   -0.000001
     magnetization/charge:    0.176592   -0.000000   -0.000000
     polar coord.: r, theta, phi [deg] :     0.619220   90.000122   -0.000122

 ==============================================================================

     total cpu time spent up to now is        3.3 secs

     total energy              =     -63.47499842 Ry
     Harris-Foulkes estimate   =     -63.48072695 Ry
     estimated scf accuracy    <       0.03056142 Ry

     total magnetization       =     1.95    -0.00    -0.00 Bohr mag/cell
     absolute magnetization    =     2.00 Bohr mag/cell

     iteration #  2     ecut=    25.00 Ry     beta=0.20
     Davidson diagonalization with overlap
     ethr =  2.55E-04,  avg # of iterations =  1.0

     negative rho (up, down):  2.790E-06 1.425E-02

 ==============================================================================
     atom number    1 relative position :    0.0085   0.0085   0.0085
     charge :     3.474028
     magnetization :          0.618229   -0.000003   -0.000003
     magnetization/charge:    0.177958   -0.000001   -0.000001
     polar coord.: r, theta, phi [deg] :     0.618229   90.000299   -0.000299

 ==============================================================================

 ==============================================================================
     atom number    2 relative position :    0.1915   0.1915   0.1915
     charge :     3.467465
     magnetization :          0.617552   -0.000001   -0.000001
     magnetization/charge:    0.178099   -0.000000   -0.000000
     polar coord.: r, theta, phi [deg] :     0.617552   90.000082   -0.000082

 ==============================================================================

     total cpu time spent up to now is        3.4 secs

     total energy              =     -63.47180100 Ry
     Harris-Foulkes estimate   =     -63.47576709 Ry
     estimated scf accuracy    <       0.01310433 Ry

     total magnetization       =     1.96    -0.00    -0.00 Bohr mag/cell
     absolute magnetization    =     2.00 Bohr mag/cell

     iteration #  3     ecut=    25.00 Ry     beta=0.20
     Davidson diagonalization with overlap
     ethr =  1.09E-04,  avg # of iterations =  2.0

     negative rho (up, down):  7.929E-05 3.251E-02

 ==============================================================================
     atom number    1 relative position :    0.0085   0.0085   0.0085
     charge :     3.474431
     magnetization :          0.626634   -0.000002   -0.000002
     magnetization/charge:    0.180356   -0.000001   -0.000001
     polar coord.: r, theta, phi [deg] :     0.626634   90.000216   -0.000216

 ==============================================================================

 ==============================================================================
     atom number    2 relative position :    0.1915   0.1915   0.1915
     charge :     3.467903
     magnetization :          0.625958   -0.000002   -0.000002
     magnetization/charge:    0.180501   -0.000001   -0.000001
     polar coord.: r, theta, phi [deg] :     0.625958   90.000223   -0.000223

 ==============================================================================

     total cpu time spent up to now is        3.5 secs

     total energy              =     -63.47425012 Ry
     Harris-Foulkes estimate   =     -63.47379109 Ry
     estimated scf accuracy    <       0.00108216 Ry

     total magnetization       =     1.96    -0.00    -0.00 Bohr mag/cell
     absolute magnetization    =     2.00 Bohr mag/cell

     iteration #  4     ecut=    25.00 Ry     beta=0.20
     Davidson diagonalization with overlap
     ethr =  9.02E-06,  avg # of iterations =  2.0

     negative rho (up, down):  4.453E-05 2.679E-02

 ==============================================================================
     atom number    1 relative position :    0.0085   0.0085   0.0085
     charge :     3.475693
     magnetization :          0.628574   -0.000002   -0.000002
     magnetization/charge:    0.180848   -0.000001   -0.000001
     polar coord.: r, theta, phi [deg] :     0.628574   90.000188   -0.000188

 ==============================================================================

 ==============================================================================
     atom number    2 relative position :    0.1915   0.1915   0.1915
     charge :     3.469128
     magnetization :          0.627915   -0.000003   -0.000003
     magnetization/charge:    0.181001   -0.000001   -0.000001
     polar coord.: r, theta, phi [deg] :     0.627915   90.000249   -0.000249

 ==============================================================================

     total cpu time spent up to now is        3.7 secs

     total energy              =     -63.47448874 Ry
     Harris-Foulkes estimate   =     -63.47434747 Ry
     estimated scf accuracy    <       0.00002444 Ry

     total magnetization       =     1.96    -0.00    -0.00 Bohr mag/cell
     absolute magnetization    =     2.01 Bohr mag/cell

     iteration #  5     ecut=    25.00 Ry     beta=0.20
     Davidson diagonalization with overlap
     ethr =  2.04E-07,  avg # of iterations =  2.0

     negative rho (up, down):  1.632E-05 1.998E-02

 ==============================================================================
     atom number    1 relative position :    0.0085   0.0085   0.0085
     charge :     3.476109
     magnetization :          0.632055   -0.000003   -0.000003
     magnetization/charge:    0.181828   -0.000001   -0.000001
     polar coord.: r, theta, phi [deg] :     0.632055   90.000271   -0.000271

 ==============================================================================

 ==============================================================================
     atom number    2 relative position :    0.1915   0.1915   0.1915
     charge :     3.469564
     magnetization :          0.631377   -0.000002   -0.000002
     magnetization/charge:    0.181976   -0.000000   -0.000000
     polar coord.: r, theta, phi [deg] :     0.631377   90.000154   -0.000154

 ==============================================================================

     total cpu time spent up to now is        3.8 secs

     total energy              =     -63.47459170 Ry
     Harris-Foulkes estimate   =     -63.47449495 Ry
     estimated scf accuracy    <       0.00000849 Ry

     total magnetization       =     1.96    -0.00    -0.00 Bohr mag/cell
     absolute magnetization    =     2.01 Bohr mag/cell

     iteration #  6     ecut=    25.00 Ry     beta=0.20
     Davidson diagonalization with overlap
     ethr =  7.07E-08,  avg # of iterations =  2.0

 ==============================================================================
     atom number    1 relative position :    0.0085   0.0085   0.0085
     charge :     3.475545
     magnetization :          0.632725   -0.000002   -0.000002
     magnetization/charge:    0.182051   -0.000000   -0.000000
     polar coord.: r, theta, phi [deg] :     0.632725   90.000157   -0.000157

 ==============================================================================

 ==============================================================================
     atom number    2 relative position :    0.1915   0.1915   0.1915
     charge :     3.468950
     magnetization :          0.632075   -0.000003   -0.000003
     magnetization/charge:    0.182209   -0.000001   -0.000001
     polar coord.: r, theta, phi [deg] :     0.632075   90.000253   -0.000253

 ==============================================================================

     total cpu time spent up to now is        4.0 secs

     End of self-consistent calculation

          k = 0.0000 0.0000 0.0000 (   895 PWs)   bands (ev):

   -29.0611 -27.8216 -17.8277 -16.0241 -10.5142  -9.9142  -9.9142  -9.6904
    -8.0084  -8.0084  -4.3089  -4.3089  -2.0406  -2.0406   1.8744   2.1279
     5.0716   6.0263   9.5620   9.5620

     the Fermi energy is    -3.1747 ev

!    total energy              =     -63.47470556 Ry
     Harris-Foulkes estimate   =     -63.47459489 Ry
     estimated scf accuracy    <       0.00000072 Ry

     The total energy is the sum of the following terms:

     one-electron contribution =     -61.27509683 Ry
     hartree contribution      =      33.71544702 Ry
     xc contribution           =     -13.54758428 Ry
     ewald contribution        =     -22.36396881 Ry
     smearing contrib. (-TS)   =      -0.00350266 Ry

     total magnetization       =     1.96    -0.00    -0.00 Bohr mag/cell
     absolute magnetization    =     2.01 Bohr mag/cell

     convergence has been achieved in   6 iterations

     Forces acting on atoms (Ry/au):

     atom    1 type  1   force =     0.06577507    0.06577604    0.06577604
     atom    2 type  2   force =    -0.06577507   -0.06577604   -0.06577604

     Total force =     0.161117     Total SCF correction =     0.003017

     number of scf cycles    =   3
     number of bfgs steps    =   1

     energy   old            =     -63.4264650022 Ry
     energy   new            =     -63.4747055572 Ry

     CASE: energy  _new < energy  _old

     new trust radius        =       0.0687238482 bohr
     new conv_thr            =       0.0000006578 Ry


ATOMIC_POSITIONS (alat)
O1       0.013773120   0.013773455   0.013773455
O2       0.186226880   0.186226545   0.186226545



     Writing output data file o2.save
     NEW-OLD atomic charge density approx. for the potential

     total cpu time spent up to now is        4.3 secs

     per-process dynamical memory:    28.9 Mb

     Self-consistent Calculation

     iteration #  1     ecut=    25.00 Ry     beta=0.20
     Davidson diagonalization with overlap
     ethr =  1.00E-06,  avg # of iterations =  4.0

     negative rho (up, down):  0.000E+00 1.929E-04

 ==============================================================================
     atom number    1 relative position :    0.0138   0.0138   0.0138
     charge :     3.462390
     magnetization :          0.629605   -0.000002   -0.000002
     magnetization/charge:    0.181841   -0.000000   -0.000000
     polar coord.: r, theta, phi [deg] :     0.629605   90.000150   -0.000150

 ==============================================================================

 ==============================================================================
     atom number    2 relative position :    0.1862   0.1862   0.1862
     charge :     3.455297
     magnetization :          0.628885   -0.000003   -0.000003
     magnetization/charge:    0.182006   -0.000001   -0.000001
     polar coord.: r, theta, phi [deg] :     0.628885   90.000300   -0.000300

 ==============================================================================

     total cpu time spent up to now is        4.4 secs

     total energy              =     -63.47594442 Ry
     Harris-Foulkes estimate   =     -63.47640621 Ry
     estimated scf accuracy    <       0.00320546 Ry

     total magnetization       =     1.96    -0.00    -0.00 Bohr mag/cell
     absolute magnetization    =     2.01 Bohr mag/cell

     iteration #  2     ecut=    25.00 Ry     beta=0.20
     Davidson diagonalization with overlap
     ethr =  2.67E-05,  avg # of iterations =  1.0

     negative rho (up, down):  0.000E+00 5.530E-03

 ==============================================================================
     atom number    1 relative position :    0.0138   0.0138   0.0138
     charge :     3.475713
     magnetization :          0.632352   -0.000002   -0.000002
     magnetization/charge:    0.181935   -0.000001   -0.000001
     polar coord.: r, theta, phi [deg] :     0.632352   90.000205   -0.000205

 ==============================================================================

 ==============================================================================
     atom number    2 relative position :    0.1862   0.1862   0.1862
     charge :     3.468629
     magnetization :          0.631595   -0.000002   -0.000002
     magnetization/charge:    0.182088   -0.000001   -0.000001
     polar coord.: r, theta, phi [deg] :     0.631595   90.000201   -0.000201

 ==============================================================================

     total cpu time spent up to now is        4.6 secs

     total energy              =     -63.47571804 Ry
     Harris-Foulkes estimate   =     -63.47601073 Ry
     estimated scf accuracy    <       0.00146007 Ry

     total magnetization       =     1.96    -0.00    -0.00 Bohr mag/cell
     absolute magnetization    =     2.01 Bohr mag/cell

     iteration #  3     ecut=    25.00 Ry     beta=0.20
     Davidson diagonalization with overlap
     ethr =  1.22E-05,  avg # of iterations =  2.0

     negative rho (up, down):  5.535E-06 1.093E-02

 ==============================================================================
     atom number    1 relative position :    0.0138   0.0138   0.0138
     charge :     3.473533
     magnetization :          0.631431   -0.000003   -0.000003
     magnetization/charge:    0.181783   -0.000001   -0.000001
     polar coord.: r, theta, phi [deg] :     0.631431   90.000241   -0.000241

 ==============================================================================

 ==============================================================================
     atom number    2 relative position :    0.1862   0.1862   0.1862
     charge :     3.466395
     magnetization :          0.630691   -0.000002   -0.000002
     magnetization/charge:    0.181944   -0.000000   -0.000000
     polar coord.: r, theta, phi [deg] :     0.630691   90.000148   -0.000148

 ==============================================================================

     total cpu time spent up to now is        4.7 secs

     total energy              =     -63.47599179 Ry
     Harris-Foulkes estimate   =     -63.47594521 Ry
     estimated scf accuracy    <       0.00011316 Ry

     total magnetization       =     1.96    -0.00    -0.00 Bohr mag/cell
     absolute magnetization    =     2.01 Bohr mag/cell

     iteration #  4     ecut=    25.00 Ry     beta=0.20
     Davidson diagonalization with overlap
     ethr =  9.43E-07,  avg # of iterations =  2.0

     negative rho (up, down):  2.046E-06 8.959E-03

 ==============================================================================
     atom number    1 relative position :    0.0138   0.0138   0.0138
     charge :     3.474892
     magnetization :          0.631658   -0.000003   -0.000003
     magnetization/charge:    0.181778   -0.000001   -0.000001
     polar coord.: r, theta, phi [deg] :     0.631658   90.000232   -0.000232

 ==============================================================================

 ==============================================================================
     atom number    2 relative position :    0.1862   0.1862   0.1862
     charge :     3.467809
     magnetization :          0.630893   -0.000002   -0.000002
     magnetization/charge:    0.181928   -0.000001   -0.000001
     polar coord.: r, theta, phi [deg] :     0.630893   90.000162   -0.000162

 ==============================================================================

     total cpu time spent up to now is        4.9 secs

     total energy              =     -63.47603240 Ry
     Harris-Foulkes estimate   =     -63.47601024 Ry
     estimated scf accuracy    <       0.00000901 Ry

     total magnetization       =     1.97    -0.00    -0.00 Bohr mag/cell
     absolute magnetization    =     2.01 Bohr mag/cell

     iteration #  5     ecut=    25.00 Ry     beta=0.20
     Davidson diagonalization with overlap
     ethr =  7.51E-08,  avg # of iterations =  2.0

     negative rho (up, down):  3.799E-08 6.430E-03

 ==============================================================================
     atom number    1 relative position :    0.0138   0.0138   0.0138
     charge :     3.474038
     magnetization :          0.631185   -0.000002   -0.000002
     magnetization/charge:    0.181686   -0.000001   -0.000001
     polar coord.: r, theta, phi [deg] :     0.631185   90.000210   -0.000210

 ==============================================================================

 ==============================================================================
     atom number    2 relative position :    0.1862   0.1862   0.1862
     charge :     3.466954
     magnetization :          0.630429   -0.000002   -0.000002
     magnetization/charge:    0.181840   -0.000001   -0.000001
     polar coord.: r, theta, phi [deg] :     0.630429   90.000202   -0.000202

 ==============================================================================

     total cpu time spent up to now is        5.0 secs

     total energy              =     -63.47605210 Ry
     Harris-Foulkes estimate   =     -63.47603532 Ry
     estimated scf accuracy    <       0.00000296 Ry

     total magnetization       =     1.97    -0.00    -0.00 Bohr mag/cell
     absolute magnetization    =     2.01 Bohr mag/cell

     iteration #  6     ecut=    25.00 Ry     beta=0.20
     Davidson diagonalization with overlap
     ethr =  2.47E-08,  avg # of iterations =  2.0

 ==============================================================================
     atom number    1 relative position :    0.0138   0.0138   0.0138
     charge :     3.474605
     magnetization :          0.631114   -0.000002   -0.000002
     magnetization/charge:    0.181636   -0.000001   -0.000001
     polar coord.: r, theta, phi [deg] :     0.631114   90.000215   -0.000215

 ==============================================================================

 ==============================================================================
     atom number    2 relative position :    0.1862   0.1862   0.1862
     charge :     3.467488
     magnetization :          0.630370   -0.000002   -0.000002
     magnetization/charge:    0.181794   -0.000001   -0.000001
     polar coord.: r, theta, phi [deg] :     0.630370   90.000213   -0.000213

 ==============================================================================

     total cpu time spent up to now is        5.1 secs

     End of self-consistent calculation

          k = 0.0000 0.0000 0.0000 (   895 PWs)   bands (ev):

   -30.6962 -29.5002 -17.2943 -15.4924 -10.7772 -10.6598 -10.6598  -9.9002
    -8.7554  -8.7554  -3.8307  -3.8307  -1.5368  -1.5368   1.9521   2.2365
     7.1678   8.0711   9.5962   9.5962

     the Fermi energy is    -2.6838 ev

!    total energy              =     -63.47609438 Ry
     Harris-Foulkes estimate   =     -63.47605334 Ry
     estimated scf accuracy    <       0.00000046 Ry

     The total energy is the sum of the following terms:

     one-electron contribution =     -64.19711406 Ry
     hartree contribution      =      35.08492519 Ry
     xc contribution           =     -13.66698590 Ry
     ewald contribution        =     -20.69363132 Ry
     smearing contrib. (-TS)   =      -0.00328830 Ry

     total magnetization       =     1.97    -0.00    -0.00 Bohr mag/cell
     absolute magnetization    =     2.01 Bohr mag/cell

     convergence has been achieved in   6 iterations

     Forces acting on atoms (Ry/au):

     atom    1 type  1   force =    -0.06666272   -0.06666252   -0.06666252
     atom    2 type  2   force =     0.06666272    0.06666252    0.06666252

     Total force =     0.163289     Total SCF correction =     0.000563

     number of scf cycles    =   4
     number of bfgs steps    =   2

     energy   old            =     -63.4747055572 Ry
     energy   new            =     -63.4760943832 Ry

     CASE: energy  _new < energy  _old

     new trust radius        =       0.0345920278 bohr
     new conv_thr            =       0.0000001389 Ry


ATOMIC_POSITIONS (alat)
O1       0.011111043   0.011110151   0.011110151
O2       0.188888957   0.188889849   0.188889849



     Writing output data file o2.save
     NEW-OLD atomic charge density approx. for the potential

     total cpu time spent up to now is        5.3 secs

     per-process dynamical memory:    28.9 Mb

     Self-consistent Calculation

     iteration #  1     ecut=    25.00 Ry     beta=0.20
     Davidson diagonalization with overlap
     ethr =  1.00E-06,  avg # of iterations =  4.0

 ==============================================================================
     atom number    1 relative position :    0.0111   0.0111   0.0111
     charge :     3.482792
     magnetization :          0.632161   -0.000002   -0.000002
     magnetization/charge:    0.181510   -0.000001   -0.000001
     polar coord.: r, theta, phi [deg] :     0.632161   90.000216   -0.000216

 ==============================================================================

 ==============================================================================
     atom number    2 relative position :    0.1889   0.1889   0.1889
     charge :     3.475975
     magnetization :          0.631443   -0.000002   -0.000002
     magnetization/charge:    0.181659   -0.000001   -0.000001
     polar coord.: r, theta, phi [deg] :     0.631443   90.000213   -0.000213

 ==============================================================================

     total cpu time spent up to now is        5.5 secs

     total energy              =     -63.47928144 Ry
     Harris-Foulkes estimate   =     -63.47941737 Ry
     estimated scf accuracy    <       0.00088603 Ry

     total magnetization       =     1.96    -0.00    -0.00 Bohr mag/cell
     absolute magnetization    =     2.01 Bohr mag/cell

     iteration #  2     ecut=    25.00 Ry     beta=0.20
     Davidson diagonalization with overlap
     ethr =  7.38E-06,  avg # of iterations =  1.0

     negative rho (up, down):  0.000E+00 7.073E-04

 ==============================================================================
     atom number    1 relative position :    0.0111   0.0111   0.0111
     charge :     3.475910
     magnetization :          0.631184   -0.000002   -0.000002
     magnetization/charge:    0.181588   -0.000001   -0.000001
     polar coord.: r, theta, phi [deg] :     0.631184   90.000217   -0.000217

 ==============================================================================

 ==============================================================================
     atom number    2 relative position :    0.1889   0.1889   0.1889
     charge :     3.469102
     magnetization :          0.630465   -0.000002   -0.000002
     magnetization/charge:    0.181737   -0.000001   -0.000001
     polar coord.: r, theta, phi [deg] :     0.630465   90.000216   -0.000216

 ==============================================================================

     total cpu time spent up to now is        5.6 secs

     total energy              =     -63.47919235 Ry
     Harris-Foulkes estimate   =     -63.47930136 Ry
     estimated scf accuracy    <       0.00039442 Ry

     total magnetization       =     1.96    -0.00    -0.00 Bohr mag/cell
     absolute magnetization    =     2.01 Bohr mag/cell

     iteration #  3     ecut=    25.00 Ry     beta=0.20
     Davidson diagonalization with overlap
     ethr =  3.29E-06,  avg # of iterations =  2.0

     negative rho (up, down):  0.000E+00 4.029E-03

 ==============================================================================
     atom number    1 relative position :    0.0111   0.0111   0.0111
     charge :     3.476649
     magnetization :          0.632050   -0.000002   -0.000002
     magnetization/charge:    0.181799   -0.000001   -0.000001
     polar coord.: r, theta, phi [deg] :     0.632050   90.000216   -0.000216

 ==============================================================================

 ==============================================================================
     atom number    2 relative position :    0.1889   0.1889   0.1889
     charge :     3.469836
     magnetization :          0.631335   -0.000002   -0.000002
     magnetization/charge:    0.181950   -0.000001   -0.000001
     polar coord.: r, theta, phi [deg] :     0.631335   90.000217   -0.000217

 ==============================================================================

     total cpu time spent up to now is        5.8 secs

     total energy              =     -63.47930880 Ry
     Harris-Foulkes estimate   =     -63.47925348 Ry
     estimated scf accuracy    <       0.00003127 Ry

     total magnetization       =     1.97    -0.00    -0.00 Bohr mag/cell
     absolute magnetization    =     2.01 Bohr mag/cell

     iteration #  4     ecut=    25.00 Ry     beta=0.20
     Davidson diagonalization with overlap
     ethr =  2.61E-07,  avg # of iterations =  2.0

     negative rho (up, down):  0.000E+00 2.551E-03

 ==============================================================================
     atom number    1 relative position :    0.0111   0.0111   0.0111
     charge :     3.476166
     magnetization :          0.632090   -0.000002   -0.000002
     magnetization/charge:    0.181835   -0.000001   -0.000001
     polar coord.: r, theta, phi [deg] :     0.632090   90.000217   -0.000217

 ==============================================================================

 ==============================================================================
     atom number    2 relative position :    0.1889   0.1889   0.1889
     charge :     3.469357
     magnetization :          0.631375   -0.000002   -0.000002
     magnetization/charge:    0.181986   -0.000001   -0.000001
     polar coord.: r, theta, phi [deg] :     0.631375   90.000218   -0.000218

 ==============================================================================

     total cpu time spent up to now is        5.9 secs

     total energy              =     -63.47929526 Ry
     Harris-Foulkes estimate   =     -63.47931342 Ry
     estimated scf accuracy    <       0.00000115 Ry

     total magnetization       =     1.96    -0.00    -0.00 Bohr mag/cell
     absolute magnetization    =     2.01 Bohr mag/cell

     iteration #  5     ecut=    25.00 Ry     beta=0.20
     Davidson diagonalization with overlap
     ethr =  9.56E-09,  avg # of iterations =  2.0

     negative rho (up, down):  0.000E+00 1.222E-03

 ==============================================================================
     atom number    1 relative position :    0.0111   0.0111   0.0111
     charge :     3.476505
     magnetization :          0.632374   -0.000002   -0.000002
     magnetization/charge:    0.181899   -0.000001   -0.000001
     polar coord.: r, theta, phi [deg] :     0.632374   90.000218   -0.000218

 ==============================================================================

 ==============================================================================
     atom number    2 relative position :    0.1889   0.1889   0.1889
     charge :     3.469696
     magnetization :          0.631662   -0.000002   -0.000002
     magnetization/charge:    0.182051   -0.000001   -0.000001
     polar coord.: r, theta, phi [deg] :     0.631662   90.000218   -0.000218

 ==============================================================================

     total cpu time spent up to now is        6.1 secs

     total energy              =     -63.47928409 Ry
     Harris-Foulkes estimate   =     -63.47929589 Ry
     estimated scf accuracy    <       0.00000075 Ry

     total magnetization       =     1.96    -0.00    -0.00 Bohr mag/cell
     absolute magnetization    =     2.01 Bohr mag/cell

     iteration #  6     ecut=    25.00 Ry     beta=0.20
     Davidson diagonalization with overlap
     ethr =  6.28E-09,  avg # of iterations =  2.0

 ==============================================================================
     atom number    1 relative position :    0.0111   0.0111   0.0111
     charge :     3.476487
     magnetization :          0.632534   -0.000002   -0.000002
     magnetization/charge:    0.181946   -0.000001   -0.000001
     polar coord.: r, theta, phi [deg] :     0.632534   90.000216   -0.000216

 ==============================================================================

 ==============================================================================
     atom number    2 relative position :    0.1889   0.1889   0.1889
     charge :     3.469676
     magnetization :          0.631823   -0.000002   -0.000002
     magnetization/charge:    0.182099   -0.000001   -0.000001
     polar coord.: r, theta, phi [deg] :     0.631823   90.000218   -0.000218

 ==============================================================================

     total cpu time spent up to now is        6.2 secs

     End of self-consistent calculation

          k = 0.0000 0.0000 0.0000 (   895 PWs)   bands (ev):

   -29.8374 -28.6177 -17.5633 -15.7599 -10.6413 -10.2649 -10.2649  -9.7920
    -8.3585  -8.3585  -4.0801  -4.0801  -1.7955  -1.7955   1.9749   2.2614
     6.1030   7.0483   9.6278   9.6278

     the Fermi energy is    -2.9378 ev

!    total energy              =     -63.47932188 Ry
     Harris-Foulkes estimate   =     -63.47928434 Ry
     estimated scf accuracy    <       0.00000003 Ry

     The total energy is the sum of the following terms:

     one-electron contribution =     -62.68809370 Ry
     hartree contribution      =      34.37982820 Ry
     xc contribution           =     -13.60479313 Ry
     ewald contribution        =     -21.56289827 Ry
     smearing contrib. (-TS)   =      -0.00336498 Ry

     total magnetization       =     1.96    -0.00    -0.00 Bohr mag/cell
     absolute magnetization    =     2.01 Bohr mag/cell

     convergence has been achieved in   6 iterations

     Forces acting on atoms (Ry/au):

     atom    1 type  1   force =     0.00923799    0.00923807    0.00923807
     atom    2 type  2   force =    -0.00923799   -0.00923807   -0.00923807

     Total force =     0.022628     Total SCF correction =     0.000392

     number of scf cycles    =   5
     number of bfgs steps    =   3

     energy   old            =     -63.4760943832 Ry
     energy   new            =     -63.4793218849 Ry

     CASE: energy  _new < energy  _old

     new trust radius        =       0.0042102771 bohr
     new conv_thr            =       0.0000000924 Ry


ATOMIC_POSITIONS (alat)
O1       0.011435042   0.011434312   0.011434312
O2       0.188564958   0.188565688   0.188565688



     Writing output data file o2.save
     NEW-OLD atomic charge density approx. for the potential

     total cpu time spent up to now is        6.4 secs

     per-process dynamical memory:    28.9 Mb

     Self-consistent Calculation

     iteration #  1     ecut=    25.00 Ry     beta=0.20
     Davidson diagonalization with overlap
     ethr =  1.00E-06,  avg # of iterations =  3.0

 ==============================================================================
     atom number    1 relative position :    0.0114   0.0114   0.0114
     charge :     3.475660
     magnetization :          0.632392   -0.000002   -0.000002
     magnetization/charge:    0.181949   -0.000001   -0.000001
     polar coord.: r, theta, phi [deg] :     0.632392   90.000216   -0.000216

 ==============================================================================

 ==============================================================================
     atom number    2 relative position :    0.1886   0.1886   0.1886
     charge :     3.468815
     magnetization :          0.631678   -0.000002   -0.000002
     magnetization/charge:    0.182102   -0.000001   -0.000001
     polar coord.: r, theta, phi [deg] :     0.631678   90.000218   -0.000218

 ==============================================================================

     total cpu time spent up to now is        6.5 secs

     total energy              =     -63.47939808 Ry
     Harris-Foulkes estimate   =     -63.47939948 Ry
     estimated scf accuracy    <       0.00001211 Ry

     total magnetization       =     1.96    -0.00    -0.00 Bohr mag/cell
     absolute magnetization    =     2.01 Bohr mag/cell

     iteration #  2     ecut=    25.00 Ry     beta=0.20
     Davidson diagonalization with overlap
     ethr =  1.01E-07,  avg # of iterations =  1.0

 ==============================================================================
     atom number    1 relative position :    0.0114   0.0114   0.0114
     charge :     3.476403
     magnetization :          0.632526   -0.000002   -0.000002
     magnetization/charge:    0.181948   -0.000001   -0.000001
     polar coord.: r, theta, phi [deg] :     0.632526   90.000216   -0.000216

 ==============================================================================

 ==============================================================================
     atom number    2 relative position :    0.1886   0.1886   0.1886
     charge :     3.469558
     magnetization :          0.631811   -0.000002   -0.000002
     magnetization/charge:    0.182101   -0.000001   -0.000001
     polar coord.: r, theta, phi [deg] :     0.631811   90.000218   -0.000218

 ==============================================================================

     total cpu time spent up to now is        6.6 secs

     total energy              =     -63.47939751 Ry
     Harris-Foulkes estimate   =     -63.47939847 Ry
     estimated scf accuracy    <       0.00000523 Ry

     total magnetization       =     1.96    -0.00    -0.00 Bohr mag/cell
     absolute magnetization    =     2.01 Bohr mag/cell

     iteration #  3     ecut=    25.00 Ry     beta=0.20
     Davidson diagonalization with overlap
     ethr =  4.36E-08,  avg # of iterations =  2.0

 ==============================================================================
     atom number    1 relative position :    0.0114   0.0114   0.0114
     charge :     3.476452
     magnetization :          0.632498   -0.000002   -0.000002
     magnetization/charge:    0.181938   -0.000001   -0.000001
     polar coord.: r, theta, phi [deg] :     0.632498   90.000217   -0.000217

 ==============================================================================

 ==============================================================================
     atom number    2 relative position :    0.1886   0.1886   0.1886
     charge :     3.469605
     magnetization :          0.631784   -0.000002   -0.000002
     magnetization/charge:    0.182091   -0.000001   -0.000001
     polar coord.: r, theta, phi [deg] :     0.631784   90.000217   -0.000217

 ==============================================================================

     total cpu time spent up to now is        6.8 secs

     total energy              =     -63.47939729 Ry
     Harris-Foulkes estimate   =     -63.47939824 Ry
     estimated scf accuracy    <       0.00000045 Ry

     total magnetization       =     1.96    -0.00    -0.00 Bohr mag/cell
     absolute magnetization    =     2.01 Bohr mag/cell

     iteration #  4     ecut=    25.00 Ry     beta=0.20
     Davidson diagonalization with overlap
     ethr =  3.79E-09,  avg # of iterations =  2.0

 ==============================================================================
     atom number    1 relative position :    0.0114   0.0114   0.0114
     charge :     3.476292
     magnetization :          0.632424   -0.000002   -0.000002
     magnetization/charge:    0.181925   -0.000001   -0.000001
     polar coord.: r, theta, phi [deg] :     0.632424   90.000217   -0.000217

 ==============================================================================

 ==============================================================================
     atom number    2 relative position :    0.1886   0.1886   0.1886
     charge :     3.469450
     magnetization :          0.631708   -0.000002   -0.000002
     magnetization/charge:    0.182077   -0.000001   -0.000001
     polar coord.: r, theta, phi [deg] :     0.631708   90.000217   -0.000217

 ==============================================================================

     total cpu time spent up to now is        6.9 secs

     End of self-consistent calculation

          k = 0.0000 0.0000 0.0000 (   895 PWs)   bands (ev):

   -29.9361 -28.7198 -17.5293 -15.7250 -10.6564 -10.3092 -10.3092  -9.8023
    -8.4032  -8.4032  -4.0492  -4.0492  -1.7632  -1.7632   2.0048   2.2896
     6.2311   7.1745   9.6266   9.6266

     the Fermi energy is    -2.9062 ev

!    total energy              =     -63.47939917 Ry
     Harris-Foulkes estimate   =     -63.47939734 Ry
     estimated scf accuracy    <       0.00000006 Ry

     The total energy is the sum of the following terms:

     one-electron contribution =     -62.86632659 Ry
     hartree contribution      =      34.46237297 Ry
     xc contribution           =     -13.61180482 Ry
     ewald contribution        =     -21.46028749 Ry
     smearing contrib. (-TS)   =      -0.00335323 Ry

     total magnetization       =     1.97    -0.00    -0.00 Bohr mag/cell
     absolute magnetization    =     2.01 Bohr mag/cell

     convergence has been achieved in   4 iterations

     Forces acting on atoms (Ry/au):

     atom    1 type  1   force =     0.00106045    0.00106041    0.00106041
     atom    2 type  2   force =    -0.00106045   -0.00106041   -0.00106041

     Total force =     0.002597     Total SCF correction =     0.000149

     number of scf cycles    =   6
     number of bfgs steps    =   4

     energy   old            =     -63.4793218849 Ry
     energy   new            =     -63.4793991701 Ry

     CASE: energy  _new < energy  _old

     new trust radius        =       0.0005459631 bohr
     new conv_thr            =       0.0000000100 Ry


ATOMIC_POSITIONS (alat)
O1       0.011477062   0.011476345   0.011476345
O2       0.188522938   0.188523655   0.188523655



     Writing output data file o2.save
     NEW-OLD atomic charge density approx. for the potential

     total cpu time spent up to now is        7.1 secs

     per-process dynamical memory:    28.9 Mb

     Self-consistent Calculation

     iteration #  1     ecut=    25.00 Ry     beta=0.20
     Davidson diagonalization with overlap
     ethr =  1.00E-06,  avg # of iterations =  2.0

     Threshold (ethr) on eigenvalues was too large:
     Diagonalizing with lowered threshold

     Davidson diagonalization with overlap
     ethr =  3.15E-09,  avg # of iterations =  1.0

 ==============================================================================
     atom number    1 relative position :    0.0115   0.0115   0.0115
     charge :     3.476209
     magnetization :          0.632408   -0.000002   -0.000002
     magnetization/charge:    0.181925   -0.000001   -0.000001
     polar coord.: r, theta, phi [deg] :     0.632408   90.000217   -0.000217

 ==============================================================================

 ==============================================================================
     atom number    2 relative position :    0.1885   0.1885   0.1885
     charge :     3.469360
     magnetization :          0.631693   -0.000002   -0.000002
     magnetization/charge:    0.182078   -0.000001   -0.000001
     polar coord.: r, theta, phi [deg] :     0.631693   90.000217   -0.000217

 ==============================================================================

     total cpu time spent up to now is        7.3 secs

     total energy              =     -63.47940029 Ry
     Harris-Foulkes estimate   =     -63.47940036 Ry
     estimated scf accuracy    <       0.00000037 Ry

     total magnetization       =     1.97    -0.00    -0.00 Bohr mag/cell
     absolute magnetization    =     2.01 Bohr mag/cell

     iteration #  2     ecut=    25.00 Ry     beta=0.20
     Davidson diagonalization with overlap
     ethr =  3.09E-09,  avg # of iterations =  1.0

 ==============================================================================
     atom number    1 relative position :    0.0115   0.0115   0.0115
     charge :     3.476353
     magnetization :          0.632429   -0.000002   -0.000002
     magnetization/charge:    0.181923   -0.000001   -0.000001
     polar coord.: r, theta, phi [deg] :     0.632429   90.000218   -0.000218

 ==============================================================================

 ==============================================================================
     atom number    2 relative position :    0.1885   0.1885   0.1885
     charge :     3.469503
     magnetization :          0.631713   -0.000002   -0.000002
     magnetization/charge:    0.182076   -0.000001   -0.000001
     polar coord.: r, theta, phi [deg] :     0.631713   90.000218   -0.000218

 ==============================================================================

     total cpu time spent up to now is        7.4 secs

     total energy              =     -63.47940025 Ry
     Harris-Foulkes estimate   =     -63.47940030 Ry
     estimated scf accuracy    <       0.00000016 Ry

     total magnetization       =     1.97    -0.00    -0.00 Bohr mag/cell
     absolute magnetization    =     2.01 Bohr mag/cell

     iteration #  3     ecut=    25.00 Ry     beta=0.20
     Davidson diagonalization with overlap
     ethr =  1.30E-09,  avg # of iterations =  2.0

 ==============================================================================
     atom number    1 relative position :    0.0115   0.0115   0.0115
     charge :     3.476340
     magnetization :          0.632412   -0.000002   -0.000002
     magnetization/charge:    0.181919   -0.000001   -0.000001
     polar coord.: r, theta, phi [deg] :     0.632412   90.000219   -0.000219

 ==============================================================================

 ==============================================================================
     atom number    2 relative position :    0.1885   0.1885   0.1885
     charge :     3.469492
     magnetization :          0.631696   -0.000002   -0.000002
     magnetization/charge:    0.182072   -0.000001   -0.000001
     polar coord.: r, theta, phi [deg] :     0.631696   90.000218   -0.000218

 ==============================================================================

     total cpu time spent up to now is        7.6 secs

     End of self-consistent calculation

          k = 0.0000 0.0000 0.0000 (   895 PWs)   bands (ev):

   -29.9500 -28.7338 -17.5259 -15.7220 -10.6593 -10.3159 -10.3159  -9.8053
    -8.4099  -8.4099  -4.0462  -4.0462  -1.7600  -1.7600   2.0071   2.2907
     6.2466   7.1903   9.6252   9.6252

     the Fermi energy is    -2.9031 ev

!    total energy              =     -63.47940029 Ry
     Harris-Foulkes estimate   =     -63.47940028 Ry
     estimated scf accuracy    <          8.9E-09 Ry

     The total energy is the sum of the following terms:

     one-electron contribution =     -62.89024511 Ry
     hartree contribution      =      34.47403551 Ry
     xc contribution           =     -13.61292112 Ry
     ewald contribution        =     -21.44691845 Ry
     smearing contrib. (-TS)   =      -0.00335112 Ry

     total magnetization       =     1.97    -0.00    -0.00 Bohr mag/cell
     absolute magnetization    =     2.01 Bohr mag/cell

     convergence has been achieved in   3 iterations

     Forces acting on atoms (Ry/au):

     atom    1 type  1   force =     0.00002572    0.00002567    0.00002567
     atom    2 type  2   force =    -0.00002572   -0.00002567   -0.00002567

     Total force =     0.000063     Total SCF correction =     0.000105
     SCF correction compared to forces is large: reduce conv_thr to get better values

     bfgs converged in   7 scf cycles and   5 bfgs steps
     (criteria: energy <  1.0E-04, force <  1.0E-03)

     End of BFGS Geometry Optimization

     Final energy   =     -63.4794002898 Ry
Begin final coordinates

ATOMIC_POSITIONS (alat)
O1       0.011477062   0.011476345   0.011476345
O2       0.188522938   0.188523655   0.188523655
End final coordinates



     Writing output data file o2.save
 
     init_run     :      0.44s CPU      0.45s WALL (       1 calls)
     electrons    :      5.95s CPU      6.01s WALL (       7 calls)
     update_pot   :      0.37s CPU      0.37s WALL (       6 calls)
     forces       :      0.18s CPU      0.19s WALL (       7 calls)

     Called by init_run:
     wfcinit      :      0.01s CPU      0.01s WALL (       1 calls)
     potinit      :      0.05s CPU      0.06s WALL (       1 calls)

     Called by electrons:
     c_bands      :      1.36s CPU      1.37s WALL (      41 calls)
     sum_band     :      2.13s CPU      2.15s WALL (      41 calls)
     v_of_rho     :      1.92s CPU      1.93s WALL (      47 calls)
     newd         :      0.49s CPU      0.49s WALL (      47 calls)
     mix_rho      :      0.20s CPU      0.20s WALL (      41 calls)

     Called by c_bands:
     init_us_2    :      0.02s CPU      0.02s WALL (      83 calls)
     cegterg      :      1.32s CPU      1.33s WALL (      41 calls)

     Called by sum_band:
     sum_band:bec :      0.00s CPU      0.00s WALL (      41 calls)
     addusdens    :      1.52s CPU      1.53s WALL (      41 calls)

     Called by *egterg:
     h_psi        :      0.93s CPU      0.94s WALL (     144 calls)
     s_psi        :      0.02s CPU      0.02s WALL (     144 calls)
     g_psi        :      0.02s CPU      0.02s WALL (     102 calls)
     cdiaghg      :      0.14s CPU      0.14s WALL (     136 calls)

     Called by h_psi:
     h_psi:pot    :      0.93s CPU      0.93s WALL (     144 calls)
     h_psi:calbec :      0.03s CPU      0.03s WALL (     144 calls)
     add_vuspsi   :      0.02s CPU      0.02s WALL (     144 calls)

     General routines
     calbec       :      0.04s CPU      0.04s WALL (     213 calls)
     fft          :      0.97s CPU      0.97s WALL (    2188 calls)
     ffts         :      0.04s CPU      0.04s WALL (     352 calls)
     fftw         :      0.74s CPU      0.75s WALL (   10344 calls)
     interpolate  :      0.22s CPU      0.22s WALL (     352 calls)
 
     Parallel routines
     fft_scatter  :      0.57s CPU      0.61s WALL (   12884 calls)
 
     PWSCF        :     7.39s CPU         7.70s WALL

 
   This run was terminated on:  16:13:45  18Aug2016            

=------------------------------------------------------------------------------=
   JOB DONE.
=------------------------------------------------------------------------------=
