
     Program PHONON v.5.4.0 (svn rev. 12782M) starts on 18Aug2016 at 16:37: 2 

     This program is part of the open-source Quantum ESPRESSO suite
     for quantum simulation of materials; please cite
         "P. Giannozzi et al., J. Phys.:Condens. Matter 21 395502 (2009);
          URL http://www.quantum-espresso.org", 
     in publications or presentations arising from this work. More details at
     http://www.quantum-espresso.org/quote
 
           HOST :    x86_64-pc-linux-gnu
           ARCH :    x86_64
             CC :    icc
            CPP :    cpp
            F90 :    ifort
            F77 :    ifort
         DFLAGS :    -D__INTEL -D__FFTW -D__MPI -D__PARA -D__HDF5
      BLAS LIBS :    -lmkl_intel_lp64  -lmkl_sequential -lmkl_core
    LAPACK LIBS :    
       FFT LIBS :    
      MASS LIBS :    

     Parallel version (MPI), running on     2 processors
     R & G space division:  proc/nbgrp/npool/nimage =       2


     Dynamical matrices for q-points given in input
     (  17q-points):
       N         xq(1)         xq(2)         xq(3) 
       1   0.000000000   0.000000000   0.000000000
       2   0.250000000   0.000000000   0.000000000
       3   0.500000000   0.000000000   0.000000000
       4   0.750000000   0.000000000   0.000000000
       5   1.000000000   0.000000000   0.000000000
       6   1.000000000   0.250000000   0.000000000
       7   1.000000000   0.500000000   0.000000000
       8   1.000000000   0.750000000   0.000000000
       9   1.000000000   1.000000000   0.000000000
      10   0.750000000   0.750000000   0.000000000
      11   0.500000000   0.500000000   0.000000000
      12   0.250000000   0.250000000   0.000000000
      13   0.000000000   0.000000000   0.000000000
      14   0.125000000   0.125000000   0.125000000
      15   0.250000000   0.250000000   0.250000000
      16   0.375000000   0.375000000   0.375000000
      17   0.500000000   0.500000000   0.500000000

     Reading data from directory:
     /home/nvarini/espresso_hdf5/espresso/tempdir/aluminum.save

   Info: using nr1, nr2, nr3 values from input

   Info: using nr1, nr2, nr3 values from input

     IMPORTANT: XC functional enforced from input :
     Exchange-correlation      =  SLA  PZ   NOGX NOGC ( 1  1  0  0 0 0)
     Any further DFT definition will be discarded
     Please, verify this is what you really want

 
     Parallelization info
     --------------------
     sticks:   dense  smooth     PW     G-vecs:    dense   smooth      PW
     Min          60      60     21                  434      434      90
     Max          61      61     22                  435      435      91
     Sum         121     121     43                  869      869     181
 

     Calculation of q =    0.0000000   0.0000000   0.0000000

                                                                                

     bravais-lattice index     =            2
     lattice parameter (alat)  =       7.5000  a.u.
     unit-cell volume          =     105.4688 (a.u.)^3
     number of atoms/cell      =            1
     number of atomic types    =            1
     kinetic-energy cut-off    =      15.0000  Ry
     charge density cut-off    =      60.0000  Ry
     convergence threshold     =      1.0E-10
     beta                      =       0.7000
     number of iterations used =            4
     Exchange-correlation      =  SLA  PZ   NOGX NOGC ( 1  1  0  0 0 0)


     celldm(1)=    7.50000  celldm(2)=    0.00000  celldm(3)=    0.00000
     celldm(4)=    0.00000  celldm(5)=    0.00000  celldm(6)=    0.00000

     crystal axes: (cart. coord. in units of alat)
               a(1) = ( -0.5000  0.0000  0.5000 )  
               a(2) = (  0.0000  0.5000  0.5000 )  
               a(3) = ( -0.5000  0.5000  0.0000 )  

     reciprocal axes: (cart. coord. in units 2 pi/alat)
               b(1) = ( -1.0000 -1.0000  1.0000 )  
               b(2) = (  1.0000  1.0000  1.0000 )  
               b(3) = ( -1.0000  1.0000 -1.0000 )  


     Atoms inside the unit cell: 

     Cartesian axes

     site n.  atom      mass           positions (alat units)
        1     Al  26.9800   tau(    1) = (    0.00000    0.00000    0.00000  )

     Computing dynamical matrix for 
                    q = (   0.0000000   0.0000000   0.0000000 )
 
     49 Sym.Ops. (with q -> -q+G )


     G cutoff =   85.4897  (    435 G-vectors)     FFT grid: ( 15, 15, 15)

     number of k points=    29  Methfessel-Paxton smearing, width (Ry)=  0.0500

     PseudoPot. # 1 for Al read from file:
     /home/nvarini/espresso_hdf5/espresso/pseudo/Al.pz-vbc.UPF
     MD5 check sum: 614279c88ff8d45c90147292d03ed420
     Pseudo is Norm-conserving, Zval =  3.0
     Generated by new atomic code, or converted to UPF format
     Using radial grid of  171 points,  2 beta functions with: 
                l(1) =   0
                l(2) =   1

     Mode symmetry, O_h (m-3m)  point group:


     Atomic displacements:
     There are   1 irreducible representations

     Representation     1      3 modes -T_1u G_15  G_4-  To be done



     Alpha used in Ewald sum =   0.7000
     PHONON       :     0.70s CPU         0.71s WALL



     Representation #  1 modes #   1  2  3

     Self-consistent Calculation
 
     Pert. #  1: Fermi energy shift (Ry) =     5.5145E-25    -9.4040E-38
     Pert. #  2: Fermi energy shift (Ry) =    -1.4614E-23    -2.5077E-37
     Pert. #  3: Fermi energy shift (Ry) =     1.1029E-23    -1.8808E-37

      iter #   1 total cpu time :     0.9 secs   av.it.:   3.3
      thresh= 1.000E-02 alpha_mix =  0.700 |ddv_scf|^2 =  1.260E-08
 
     Pert. #  1: Fermi energy shift (Ry) =     2.7573E-24    -1.2245E-40
     Pert. #  2: Fermi energy shift (Ry) =     9.0990E-24    -3.0612E-40
     Pert. #  3: Fermi energy shift (Ry) =    -1.6544E-24     1.8367E-40

      iter #   2 total cpu time :     1.0 secs   av.it.:   5.8
      thresh= 1.123E-05 alpha_mix =  0.700 |ddv_scf|^2 =  1.307E-09
 
     Pert. #  1: Fermi energy shift (Ry) =    -1.1029E-24     1.2245E-40
     Pert. #  2: Fermi energy shift (Ry) =    -6.0660E-24     2.1122E-39
     Pert. #  3: Fermi energy shift (Ry) =     4.9631E-24     7.3468E-40

      iter #   3 total cpu time :     1.1 secs   av.it.:   5.4
      thresh= 3.615E-06 alpha_mix =  0.700 |ddv_scf|^2 =  1.656E-13

     End of self-consistent calculation

     Convergence has been achieved 
 
     Number of q in the star =    1
     List of q in the star:
          1   0.000000000   0.000000000   0.000000000

     Diagonalizing the dynamical matrix

     q = (    0.000000000   0.000000000   0.000000000 ) 

 **************************************************************************
     freq (    1) =       0.187691 [THz] =       6.260705 [cm-1]
     freq (    2) =       0.187691 [THz] =       6.260705 [cm-1]
     freq (    3) =       0.187691 [THz] =       6.260705 [cm-1]
 **************************************************************************

     Mode symmetry, O_h (m-3m)  point group:

     freq (  1 -  3) =          6.3  [cm-1]   --> T_1u G_15  G_4- I  

     Calculation of q =    0.2500000   0.0000000   0.0000000
 
     Parallelization info
     --------------------
     sticks:   dense  smooth     PW     G-vecs:    dense   smooth      PW
     Min          60      60     27                  434      434     129
     Max          61      61     28                  435      435     130
     Sum         121     121     55                  869      869     259
 


     bravais-lattice index     =            2
     lattice parameter (alat)  =       7.5000  a.u.
     unit-cell volume          =     105.4688 (a.u.)^3
     number of atoms/cell      =            1
     number of atomic types    =            1
     number of electrons       =         3.00
     number of Kohn-Sham states=            6
     kinetic-energy cutoff     =      15.0000  Ry
     charge density cutoff     =      60.0000  Ry
     Exchange-correlation      =  SLA  PZ   NOGX NOGC ( 1  1  0  0 0 0)

     celldm(1)=   7.500000  celldm(2)=   0.000000  celldm(3)=   0.000000
     celldm(4)=   0.000000  celldm(5)=   0.000000  celldm(6)=   0.000000

     crystal axes: (cart. coord. in units of alat)
               a(1) = (  -0.500000   0.000000   0.500000 )  
               a(2) = (   0.000000   0.500000   0.500000 )  
               a(3) = (  -0.500000   0.500000   0.000000 )  

     reciprocal axes: (cart. coord. in units 2 pi/alat)
               b(1) = ( -1.000000 -1.000000  1.000000 )  
               b(2) = (  1.000000  1.000000  1.000000 )  
               b(3) = ( -1.000000  1.000000 -1.000000 )  


     PseudoPot. # 1 for Al read from file:
     /home/nvarini/espresso_hdf5/espresso/pseudo/Al.pz-vbc.UPF
     MD5 check sum: 614279c88ff8d45c90147292d03ed420
     Pseudo is Norm-conserving, Zval =  3.0
     Generated by new atomic code, or converted to UPF format
     Using radial grid of  171 points,  2 beta functions with: 
                l(1) =   0
                l(2) =   1

     atomic species   valence    mass     pseudopotential
        Al             3.00    26.98000     Al( 1.00)

     48 Sym. Ops., with inversion, found



   Cartesian axes

     site n.     atom                  positions (alat units)
         1           Al  tau(   1) = (   0.0000000   0.0000000   0.0000000  )

     number of k points=   200  Methfessel-Paxton smearing, width (Ry)=  0.0500

     Number of k-points >= 100: set verbosity='high' to print them.

     Dense  grid:      869 G-vectors     FFT dimensions: (  15,  15,  15)

     Estimated max dynamical RAM per process >       0.22Mb

     Estimated total allocated dynamical RAM >       0.43Mb

     The potential is recalculated from file :
     /home/nvarini/espresso_hdf5/espresso/tempdir/_ph0/aluminum.save/charge-density.hdf5

     Starting wfc are    4 atomic +    2 random wfc

     Band Structure Calculation
     Davidson diagonalization with overlap

     ethr =  3.33E-10,  avg # of iterations = 13.3

     total cpu time spent up to now is        1.6 secs

     End of band structure calculation

     Number of k-points >= 100: set verbosity='high' to print the bands.

     the Fermi energy is     8.1818 ev

     Writing output data file aluminum.save

                                                                                

     bravais-lattice index     =            2
     lattice parameter (alat)  =       7.5000  a.u.
     unit-cell volume          =     105.4688 (a.u.)^3
     number of atoms/cell      =            1
     number of atomic types    =            1
     kinetic-energy cut-off    =      15.0000  Ry
     charge density cut-off    =      60.0000  Ry
     convergence threshold     =      1.0E-10
     beta                      =       0.7000
     number of iterations used =            4
     Exchange-correlation      =  SLA  PZ   NOGX NOGC ( 1  1  0  0 0 0)


     celldm(1)=    7.50000  celldm(2)=    0.00000  celldm(3)=    0.00000
     celldm(4)=    0.00000  celldm(5)=    0.00000  celldm(6)=    0.00000

     crystal axes: (cart. coord. in units of alat)
               a(1) = ( -0.5000  0.0000  0.5000 )  
               a(2) = (  0.0000  0.5000  0.5000 )  
               a(3) = ( -0.5000  0.5000  0.0000 )  

     reciprocal axes: (cart. coord. in units 2 pi/alat)
               b(1) = ( -1.0000 -1.0000  1.0000 )  
               b(2) = (  1.0000  1.0000  1.0000 )  
               b(3) = ( -1.0000  1.0000 -1.0000 )  


     Atoms inside the unit cell: 

     Cartesian axes

     site n.  atom      mass           positions (alat units)
        1     Al  26.9800   tau(    1) = (    0.00000    0.00000    0.00000  )

     Computing dynamical matrix for 
                    q = (   0.2500000   0.0000000   0.0000000 )
 
      8 Sym.Ops. (no q -> -q+G )


     G cutoff =   85.4897  (    435 G-vectors)     FFT grid: ( 15, 15, 15)

     number of k points=   200  Methfessel-Paxton smearing, width (Ry)=  0.0500

     PseudoPot. # 1 for Al read from file:
     /home/nvarini/espresso_hdf5/espresso/pseudo/Al.pz-vbc.UPF
     MD5 check sum: 614279c88ff8d45c90147292d03ed420
     Pseudo is Norm-conserving, Zval =  3.0
     Generated by new atomic code, or converted to UPF format
     Using radial grid of  171 points,  2 beta functions with: 
                l(1) =   0
                l(2) =   1

     Mode symmetry, C_4v (4mm)  point group:


     Atomic displacements:
     There are   2 irreducible representations

     Representation     1      1 modes -A_1  G_1 D_1  To be done

     Representation     2      2 modes -E    G_5 D_5  To be done



     Alpha used in Ewald sum =   0.7000
     PHONON       :     3.07s CPU         3.20s WALL



     Representation #  1 mode #   1

     Self-consistent Calculation

      iter #   1 total cpu time :     3.4 secs   av.it.:   4.2
      thresh= 1.000E-02 alpha_mix =  0.700 |ddv_scf|^2 =  5.675E-01

      iter #   2 total cpu time :     3.6 secs   av.it.:   5.5
      thresh= 1.000E-02 alpha_mix =  0.700 |ddv_scf|^2 =  2.122E+02

      iter #   3 total cpu time :     3.8 secs   av.it.:   5.5
      thresh= 1.000E-02 alpha_mix =  0.700 |ddv_scf|^2 =  7.854E-04

      iter #   4 total cpu time :     4.0 secs   av.it.:   2.4
      thresh= 2.803E-03 alpha_mix =  0.700 |ddv_scf|^2 =  2.404E-08

      iter #   5 total cpu time :     4.2 secs   av.it.:   5.3
      thresh= 1.550E-05 alpha_mix =  0.700 |ddv_scf|^2 =  3.948E-09

      iter #   6 total cpu time :     4.3 secs   av.it.:   4.0
      thresh= 6.283E-06 alpha_mix =  0.700 |ddv_scf|^2 =  9.697E-09

      iter #   7 total cpu time :     4.5 secs   av.it.:   2.0
      thresh= 9.847E-06 alpha_mix =  0.700 |ddv_scf|^2 =  5.017E-10

      iter #   8 total cpu time :     4.6 secs   av.it.:   2.9
      thresh= 2.240E-06 alpha_mix =  0.700 |ddv_scf|^2 =  2.740E-12

     End of self-consistent calculation

     Convergence has been achieved 


     Representation #  2 modes #   2  3

     Self-consistent Calculation

      iter #   1 total cpu time :     5.0 secs   av.it.:   3.3
      thresh= 1.000E-02 alpha_mix =  0.700 |ddv_scf|^2 =  3.753E-08

      iter #   2 total cpu time :     5.4 secs   av.it.:   6.0
      thresh= 1.937E-05 alpha_mix =  0.700 |ddv_scf|^2 =  3.094E-09

      iter #   3 total cpu time :     5.7 secs   av.it.:   5.7
      thresh= 5.562E-06 alpha_mix =  0.700 |ddv_scf|^2 =  2.516E-11

     End of self-consistent calculation

     Convergence has been achieved 
 
     Number of q in the star =    6
     List of q in the star:
          1   0.250000000   0.000000000   0.000000000
          2   0.000000000   0.000000000  -0.250000000
          3  -0.250000000   0.000000000   0.000000000
          4   0.000000000  -0.250000000   0.000000000
          5   0.000000000   0.250000000   0.000000000
          6   0.000000000   0.000000000   0.250000000

     Diagonalizing the dynamical matrix

     q = (    0.250000000   0.000000000   0.000000000 ) 

 **************************************************************************
     freq (    1) =       2.361602 [THz] =      78.774578 [cm-1]
     freq (    2) =       2.361602 [THz] =      78.774578 [cm-1]
     freq (    3) =       4.126938 [THz] =     137.659851 [cm-1]
 **************************************************************************

     Mode symmetry, C_4v (4mm)  point group:

     freq (  1 -  2) =         78.8  [cm-1]   --> E    G_5 D_5       
     freq (  3 -  3) =        137.7  [cm-1]   --> A_1  G_1 D_1       

     Calculation of q =    0.5000000   0.0000000   0.0000000
 
     Parallelization info
     --------------------
     sticks:   dense  smooth     PW     G-vecs:    dense   smooth      PW
     Min          60      60     27                  434      434     129
     Max          61      61     28                  435      435     130
     Sum         121     121     55                  869      869     259
 


     bravais-lattice index     =            2
     lattice parameter (alat)  =       7.5000  a.u.
     unit-cell volume          =     105.4688 (a.u.)^3
     number of atoms/cell      =            1
     number of atomic types    =            1
     number of electrons       =         3.00
     number of Kohn-Sham states=            6
     kinetic-energy cutoff     =      15.0000  Ry
     charge density cutoff     =      60.0000  Ry
     Exchange-correlation      =  SLA  PZ   NOGX NOGC ( 1  1  0  0 0 0)

     celldm(1)=   7.500000  celldm(2)=   0.000000  celldm(3)=   0.000000
     celldm(4)=   0.000000  celldm(5)=   0.000000  celldm(6)=   0.000000

     crystal axes: (cart. coord. in units of alat)
               a(1) = (  -0.500000   0.000000   0.500000 )  
               a(2) = (   0.000000   0.500000   0.500000 )  
               a(3) = (  -0.500000   0.500000   0.000000 )  

     reciprocal axes: (cart. coord. in units 2 pi/alat)
               b(1) = ( -1.000000 -1.000000  1.000000 )  
               b(2) = (  1.000000  1.000000  1.000000 )  
               b(3) = ( -1.000000  1.000000 -1.000000 )  


     PseudoPot. # 1 for Al read from file:
     /home/nvarini/espresso_hdf5/espresso/pseudo/Al.pz-vbc.UPF
     MD5 check sum: 614279c88ff8d45c90147292d03ed420
     Pseudo is Norm-conserving, Zval =  3.0
     Generated by new atomic code, or converted to UPF format
     Using radial grid of  171 points,  2 beta functions with: 
                l(1) =   0
                l(2) =   1

     atomic species   valence    mass     pseudopotential
        Al             3.00    26.98000     Al( 1.00)

     48 Sym. Ops., with inversion, found



   Cartesian axes

     site n.     atom                  positions (alat units)
         1           Al  tau(   1) = (   0.0000000   0.0000000   0.0000000  )

     number of k points=   200  Methfessel-Paxton smearing, width (Ry)=  0.0500

     Number of k-points >= 100: set verbosity='high' to print them.

     Dense  grid:      869 G-vectors     FFT dimensions: (  15,  15,  15)

     Estimated max dynamical RAM per process >       0.22Mb

     Estimated total allocated dynamical RAM >       0.43Mb

     The potential is recalculated from file :
     /home/nvarini/espresso_hdf5/espresso/tempdir/_ph0/aluminum.save/charge-density.hdf5

     Starting wfc are    4 atomic +    2 random wfc

     Band Structure Calculation
     Davidson diagonalization with overlap

     ethr =  3.33E-10,  avg # of iterations = 13.5

     total cpu time spent up to now is        3.5 secs

     End of band structure calculation

     Number of k-points >= 100: set verbosity='high' to print the bands.

     the Fermi energy is     8.1818 ev

     Writing output data file aluminum.save

                                                                                

     bravais-lattice index     =            2
     lattice parameter (alat)  =       7.5000  a.u.
     unit-cell volume          =     105.4688 (a.u.)^3
     number of atoms/cell      =            1
     number of atomic types    =            1
     kinetic-energy cut-off    =      15.0000  Ry
     charge density cut-off    =      60.0000  Ry
     convergence threshold     =      1.0E-10
     beta                      =       0.7000
     number of iterations used =            4
     Exchange-correlation      =  SLA  PZ   NOGX NOGC ( 1  1  0  0 0 0)


     celldm(1)=    7.50000  celldm(2)=    0.00000  celldm(3)=    0.00000
     celldm(4)=    0.00000  celldm(5)=    0.00000  celldm(6)=    0.00000

     crystal axes: (cart. coord. in units of alat)
               a(1) = ( -0.5000  0.0000  0.5000 )  
               a(2) = (  0.0000  0.5000  0.5000 )  
               a(3) = ( -0.5000  0.5000  0.0000 )  

     reciprocal axes: (cart. coord. in units 2 pi/alat)
               b(1) = ( -1.0000 -1.0000  1.0000 )  
               b(2) = (  1.0000  1.0000  1.0000 )  
               b(3) = ( -1.0000  1.0000 -1.0000 )  


     Atoms inside the unit cell: 

     Cartesian axes

     site n.  atom      mass           positions (alat units)
        1     Al  26.9800   tau(    1) = (    0.00000    0.00000    0.00000  )

     Computing dynamical matrix for 
                    q = (   0.5000000   0.0000000   0.0000000 )
 
      8 Sym.Ops. (no q -> -q+G )


     G cutoff =   85.4897  (    435 G-vectors)     FFT grid: ( 15, 15, 15)

     number of k points=   200  Methfessel-Paxton smearing, width (Ry)=  0.0500

     PseudoPot. # 1 for Al read from file:
     /home/nvarini/espresso_hdf5/espresso/pseudo/Al.pz-vbc.UPF
     MD5 check sum: 614279c88ff8d45c90147292d03ed420
     Pseudo is Norm-conserving, Zval =  3.0
     Generated by new atomic code, or converted to UPF format
     Using radial grid of  171 points,  2 beta functions with: 
                l(1) =   0
                l(2) =   1

     Mode symmetry, C_4v (4mm)  point group:


     Atomic displacements:
     There are   2 irreducible representations

     Representation     1      1 modes -A_1  G_1 D_1  To be done

     Representation     2      2 modes -E    G_5 D_5  To be done



     Alpha used in Ewald sum =   0.7000
     PHONON       :     7.31s CPU         7.80s WALL



     Representation #  1 mode #   1

     Self-consistent Calculation

      iter #   1 total cpu time :     8.0 secs   av.it.:   4.0
      thresh= 1.000E-02 alpha_mix =  0.700 |ddv_scf|^2 =  7.781E-03

      iter #   2 total cpu time :     8.2 secs   av.it.:   4.6
      thresh= 8.821E-03 alpha_mix =  0.700 |ddv_scf|^2 =  1.718E-01

      iter #   3 total cpu time :     8.4 secs   av.it.:   4.4
      thresh= 1.000E-02 alpha_mix =  0.700 |ddv_scf|^2 =  4.977E-08

      iter #   4 total cpu time :     8.6 secs   av.it.:   5.8
      thresh= 2.231E-05 alpha_mix =  0.700 |ddv_scf|^2 =  1.013E-09

      iter #   5 total cpu time :     8.8 secs   av.it.:   5.1
      thresh= 3.182E-06 alpha_mix =  0.700 |ddv_scf|^2 =  5.668E-12

     End of self-consistent calculation

     Convergence has been achieved 


     Representation #  2 modes #   2  3

     Self-consistent Calculation

      iter #   1 total cpu time :     9.1 secs   av.it.:   3.5
      thresh= 1.000E-02 alpha_mix =  0.700 |ddv_scf|^2 =  8.880E-08

      iter #   2 total cpu time :     9.5 secs   av.it.:   6.3
      thresh= 2.980E-05 alpha_mix =  0.700 |ddv_scf|^2 =  3.106E-09

      iter #   3 total cpu time :     9.8 secs   av.it.:   5.6
      thresh= 5.573E-06 alpha_mix =  0.700 |ddv_scf|^2 =  1.735E-10

      iter #   4 total cpu time :    10.2 secs   av.it.:   5.4
      thresh= 1.317E-06 alpha_mix =  0.700 |ddv_scf|^2 =  1.712E-14

     End of self-consistent calculation

     Convergence has been achieved 
 
     Number of q in the star =    6
     List of q in the star:
          1   0.500000000   0.000000000   0.000000000
          2   0.000000000   0.000000000  -0.500000000
          3  -0.500000000   0.000000000   0.000000000
          4   0.000000000  -0.500000000   0.000000000
          5   0.000000000   0.500000000   0.000000000
          6   0.000000000   0.000000000   0.500000000

     Diagonalizing the dynamical matrix

     q = (    0.500000000   0.000000000   0.000000000 ) 

 **************************************************************************
     freq (    1) =       4.263827 [THz] =     142.225945 [cm-1]
     freq (    2) =       4.263827 [THz] =     142.225945 [cm-1]
     freq (    3) =       6.784682 [THz] =     226.312645 [cm-1]
 **************************************************************************

     Mode symmetry, C_4v (4mm)  point group:

     freq (  1 -  2) =        142.2  [cm-1]   --> E    G_5 D_5       
     freq (  3 -  3) =        226.3  [cm-1]   --> A_1  G_1 D_1       

     Calculation of q =    0.7500000   0.0000000   0.0000000
 
     Parallelization info
     --------------------
     sticks:   dense  smooth     PW     G-vecs:    dense   smooth      PW
     Min          60      60     27                  434      434     141
     Max          61      61     28                  435      435     142
     Sum         121     121     55                  869      869     283
 


     bravais-lattice index     =            2
     lattice parameter (alat)  =       7.5000  a.u.
     unit-cell volume          =     105.4688 (a.u.)^3
     number of atoms/cell      =            1
     number of atomic types    =            1
     number of electrons       =         3.00
     number of Kohn-Sham states=            6
     kinetic-energy cutoff     =      15.0000  Ry
     charge density cutoff     =      60.0000  Ry
     Exchange-correlation      =  SLA  PZ   NOGX NOGC ( 1  1  0  0 0 0)

     celldm(1)=   7.500000  celldm(2)=   0.000000  celldm(3)=   0.000000
     celldm(4)=   0.000000  celldm(5)=   0.000000  celldm(6)=   0.000000

     crystal axes: (cart. coord. in units of alat)
               a(1) = (  -0.500000   0.000000   0.500000 )  
               a(2) = (   0.000000   0.500000   0.500000 )  
               a(3) = (  -0.500000   0.500000   0.000000 )  

     reciprocal axes: (cart. coord. in units 2 pi/alat)
               b(1) = ( -1.000000 -1.000000  1.000000 )  
               b(2) = (  1.000000  1.000000  1.000000 )  
               b(3) = ( -1.000000  1.000000 -1.000000 )  


     PseudoPot. # 1 for Al read from file:
     /home/nvarini/espresso_hdf5/espresso/pseudo/Al.pz-vbc.UPF
     MD5 check sum: 614279c88ff8d45c90147292d03ed420
     Pseudo is Norm-conserving, Zval =  3.0
     Generated by new atomic code, or converted to UPF format
     Using radial grid of  171 points,  2 beta functions with: 
                l(1) =   0
                l(2) =   1

     atomic species   valence    mass     pseudopotential
        Al             3.00    26.98000     Al( 1.00)

     48 Sym. Ops., with inversion, found



   Cartesian axes

     site n.     atom                  positions (alat units)
         1           Al  tau(   1) = (   0.0000000   0.0000000   0.0000000  )

     number of k points=   200  Methfessel-Paxton smearing, width (Ry)=  0.0500

     Number of k-points >= 100: set verbosity='high' to print them.

     Dense  grid:      869 G-vectors     FFT dimensions: (  15,  15,  15)

     Estimated max dynamical RAM per process >       0.22Mb

     Estimated total allocated dynamical RAM >       0.43Mb

     The potential is recalculated from file :
     /home/nvarini/espresso_hdf5/espresso/tempdir/_ph0/aluminum.save/charge-density.hdf5

     Starting wfc are    4 atomic +    2 random wfc

     Band Structure Calculation
     Davidson diagonalization with overlap

     ethr =  3.33E-10,  avg # of iterations = 13.5

     total cpu time spent up to now is        5.5 secs

     End of band structure calculation

     Number of k-points >= 100: set verbosity='high' to print the bands.

     the Fermi energy is     8.1818 ev

     Writing output data file aluminum.save

                                                                                

     bravais-lattice index     =            2
     lattice parameter (alat)  =       7.5000  a.u.
     unit-cell volume          =     105.4688 (a.u.)^3
     number of atoms/cell      =            1
     number of atomic types    =            1
     kinetic-energy cut-off    =      15.0000  Ry
     charge density cut-off    =      60.0000  Ry
     convergence threshold     =      1.0E-10
     beta                      =       0.7000
     number of iterations used =            4
     Exchange-correlation      =  SLA  PZ   NOGX NOGC ( 1  1  0  0 0 0)


     celldm(1)=    7.50000  celldm(2)=    0.00000  celldm(3)=    0.00000
     celldm(4)=    0.00000  celldm(5)=    0.00000  celldm(6)=    0.00000

     crystal axes: (cart. coord. in units of alat)
               a(1) = ( -0.5000  0.0000  0.5000 )  
               a(2) = (  0.0000  0.5000  0.5000 )  
               a(3) = ( -0.5000  0.5000  0.0000 )  

     reciprocal axes: (cart. coord. in units 2 pi/alat)
               b(1) = ( -1.0000 -1.0000  1.0000 )  
               b(2) = (  1.0000  1.0000  1.0000 )  
               b(3) = ( -1.0000  1.0000 -1.0000 )  


     Atoms inside the unit cell: 

     Cartesian axes

     site n.  atom      mass           positions (alat units)
        1     Al  26.9800   tau(    1) = (    0.00000    0.00000    0.00000  )

     Computing dynamical matrix for 
                    q = (   0.7500000   0.0000000   0.0000000 )
 
      8 Sym.Ops. (no q -> -q+G )


     G cutoff =   85.4897  (    435 G-vectors)     FFT grid: ( 15, 15, 15)

     number of k points=   200  Methfessel-Paxton smearing, width (Ry)=  0.0500

     PseudoPot. # 1 for Al read from file:
     /home/nvarini/espresso_hdf5/espresso/pseudo/Al.pz-vbc.UPF
     MD5 check sum: 614279c88ff8d45c90147292d03ed420
     Pseudo is Norm-conserving, Zval =  3.0
     Generated by new atomic code, or converted to UPF format
     Using radial grid of  171 points,  2 beta functions with: 
                l(1) =   0
                l(2) =   1

     Mode symmetry, C_4v (4mm)  point group:


     Atomic displacements:
     There are   2 irreducible representations

     Representation     1      1 modes -A_1  G_1 D_1  To be done

     Representation     2      2 modes -E    G_5 D_5  To be done



     Alpha used in Ewald sum =   0.7000
     PHONON       :    11.52s CPU        12.65s WALL



     Representation #  1 mode #   1

     Self-consistent Calculation

      iter #   1 total cpu time :    12.9 secs   av.it.:   4.0
      thresh= 1.000E-02 alpha_mix =  0.700 |ddv_scf|^2 =  4.384E-04

      iter #   2 total cpu time :    13.1 secs   av.it.:   5.0
      thresh= 2.094E-03 alpha_mix =  0.700 |ddv_scf|^2 =  1.341E-03

      iter #   3 total cpu time :    13.2 secs   av.it.:   4.3
      thresh= 3.661E-03 alpha_mix =  0.700 |ddv_scf|^2 =  4.108E-08

      iter #   4 total cpu time :    13.4 secs   av.it.:   5.8
      thresh= 2.027E-05 alpha_mix =  0.700 |ddv_scf|^2 =  1.324E-09

      iter #   5 total cpu time :    13.6 secs   av.it.:   5.2
      thresh= 3.638E-06 alpha_mix =  0.700 |ddv_scf|^2 =  4.457E-11

     End of self-consistent calculation

     Convergence has been achieved 


     Representation #  2 modes #   2  3

     Self-consistent Calculation

      iter #   1 total cpu time :    14.0 secs   av.it.:   3.5
      thresh= 1.000E-02 alpha_mix =  0.700 |ddv_scf|^2 =  2.073E-07

      iter #   2 total cpu time :    14.3 secs   av.it.:   6.2
      thresh= 4.553E-05 alpha_mix =  0.700 |ddv_scf|^2 =  3.201E-09

      iter #   3 total cpu time :    14.7 secs   av.it.:   5.5
      thresh= 5.658E-06 alpha_mix =  0.700 |ddv_scf|^2 =  3.162E-10

      iter #   4 total cpu time :    15.0 secs   av.it.:   5.5
      thresh= 1.778E-06 alpha_mix =  0.700 |ddv_scf|^2 =  1.167E-14

     End of self-consistent calculation

     Convergence has been achieved 
 
     Number of q in the star =    6
     List of q in the star:
          1   0.750000000   0.000000000   0.000000000
          2   0.000000000   0.000000000  -0.750000000
          3  -0.750000000   0.000000000   0.000000000
          4   0.000000000  -0.750000000   0.000000000
          5   0.000000000   0.750000000   0.000000000
          6   0.000000000   0.000000000   0.750000000

     Diagonalizing the dynamical matrix

     q = (    0.750000000   0.000000000   0.000000000 ) 

 **************************************************************************
     freq (    1) =       5.454457 [THz] =     181.941093 [cm-1]
     freq (    2) =       5.454457 [THz] =     181.941093 [cm-1]
     freq (    3) =       8.330562 [THz] =     277.877638 [cm-1]
 **************************************************************************

     Mode symmetry, C_4v (4mm)  point group:

     freq (  1 -  2) =        181.9  [cm-1]   --> E    G_5 D_5       
     freq (  3 -  3) =        277.9  [cm-1]   --> A_1  G_1 D_1       

     Calculation of q =    1.0000000   0.0000000   0.0000000
 
     Parallelization info
     --------------------
     sticks:   dense  smooth     PW     G-vecs:    dense   smooth      PW
     Min          60      60     30                  434      434     165
     Max          61      61     31                  435      435     166
     Sum         121     121     61                  869      869     331
 


     bravais-lattice index     =            2
     lattice parameter (alat)  =       7.5000  a.u.
     unit-cell volume          =     105.4688 (a.u.)^3
     number of atoms/cell      =            1
     number of atomic types    =            1
     number of electrons       =         3.00
     number of Kohn-Sham states=            6
     kinetic-energy cutoff     =      15.0000  Ry
     charge density cutoff     =      60.0000  Ry
     Exchange-correlation      =  SLA  PZ   NOGX NOGC ( 1  1  0  0 0 0)

     celldm(1)=   7.500000  celldm(2)=   0.000000  celldm(3)=   0.000000
     celldm(4)=   0.000000  celldm(5)=   0.000000  celldm(6)=   0.000000

     crystal axes: (cart. coord. in units of alat)
               a(1) = (  -0.500000   0.000000   0.500000 )  
               a(2) = (   0.000000   0.500000   0.500000 )  
               a(3) = (  -0.500000   0.500000   0.000000 )  

     reciprocal axes: (cart. coord. in units 2 pi/alat)
               b(1) = ( -1.000000 -1.000000  1.000000 )  
               b(2) = (  1.000000  1.000000  1.000000 )  
               b(3) = ( -1.000000  1.000000 -1.000000 )  


     PseudoPot. # 1 for Al read from file:
     /home/nvarini/espresso_hdf5/espresso/pseudo/Al.pz-vbc.UPF
     MD5 check sum: 614279c88ff8d45c90147292d03ed420
     Pseudo is Norm-conserving, Zval =  3.0
     Generated by new atomic code, or converted to UPF format
     Using radial grid of  171 points,  2 beta functions with: 
                l(1) =   0
                l(2) =   1

     atomic species   valence    mass     pseudopotential
        Al             3.00    26.98000     Al( 1.00)

     48 Sym. Ops., with inversion, found



   Cartesian axes

     site n.     atom                  positions (alat units)
         1           Al  tau(   1) = (   0.0000000   0.0000000   0.0000000  )

     number of k points=   118  Methfessel-Paxton smearing, width (Ry)=  0.0500

     Number of k-points >= 100: set verbosity='high' to print them.

     Dense  grid:      869 G-vectors     FFT dimensions: (  15,  15,  15)

     Estimated max dynamical RAM per process >       0.22Mb

     Estimated total allocated dynamical RAM >       0.43Mb

     The potential is recalculated from file :
     /home/nvarini/espresso_hdf5/espresso/tempdir/_ph0/aluminum.save/charge-density.hdf5

     Starting wfc are    4 atomic +    2 random wfc

     Band Structure Calculation
     Davidson diagonalization with overlap

     ethr =  3.33E-10,  avg # of iterations = 13.4

     total cpu time spent up to now is        6.8 secs

     End of band structure calculation

     Number of k-points >= 100: set verbosity='high' to print the bands.

     the Fermi energy is     8.1818 ev

     Writing output data file aluminum.save

                                                                                

     bravais-lattice index     =            2
     lattice parameter (alat)  =       7.5000  a.u.
     unit-cell volume          =     105.4688 (a.u.)^3
     number of atoms/cell      =            1
     number of atomic types    =            1
     kinetic-energy cut-off    =      15.0000  Ry
     charge density cut-off    =      60.0000  Ry
     convergence threshold     =      1.0E-10
     beta                      =       0.7000
     number of iterations used =            4
     Exchange-correlation      =  SLA  PZ   NOGX NOGC ( 1  1  0  0 0 0)


     celldm(1)=    7.50000  celldm(2)=    0.00000  celldm(3)=    0.00000
     celldm(4)=    0.00000  celldm(5)=    0.00000  celldm(6)=    0.00000

     crystal axes: (cart. coord. in units of alat)
               a(1) = ( -0.5000  0.0000  0.5000 )  
               a(2) = (  0.0000  0.5000  0.5000 )  
               a(3) = ( -0.5000  0.5000  0.0000 )  

     reciprocal axes: (cart. coord. in units 2 pi/alat)
               b(1) = ( -1.0000 -1.0000  1.0000 )  
               b(2) = (  1.0000  1.0000  1.0000 )  
               b(3) = ( -1.0000  1.0000 -1.0000 )  


     Atoms inside the unit cell: 

     Cartesian axes

     site n.  atom      mass           positions (alat units)
        1     Al  26.9800   tau(    1) = (    0.00000    0.00000    0.00000  )

     Computing dynamical matrix for 
                    q = (   1.0000000   0.0000000   0.0000000 )
 
     17 Sym.Ops. (with q -> -q+G )


     G cutoff =   85.4897  (    435 G-vectors)     FFT grid: ( 15, 15, 15)

     number of k points=   118  Methfessel-Paxton smearing, width (Ry)=  0.0500

     PseudoPot. # 1 for Al read from file:
     /home/nvarini/espresso_hdf5/espresso/pseudo/Al.pz-vbc.UPF
     MD5 check sum: 614279c88ff8d45c90147292d03ed420
     Pseudo is Norm-conserving, Zval =  3.0
     Generated by new atomic code, or converted to UPF format
     Using radial grid of  171 points,  2 beta functions with: 
                l(1) =   0
                l(2) =   1

     Mode symmetry, D_4h(4/mmm) point group:


     Atomic displacements:
     There are   2 irreducible representations

     Representation     1      1 modes -A_2u X_4' M_4'  To be done

     Representation     2      2 modes -E_u  X_5' M_5'  To be done



     Alpha used in Ewald sum =   0.7000
     PHONON       :    14.96s CPU        16.29s WALL



     Representation #  1 mode #   1

     Self-consistent Calculation

      iter #   1 total cpu time :    16.4 secs   av.it.:   3.8
      thresh= 1.000E-02 alpha_mix =  0.700 |ddv_scf|^2 =  6.006E-05

      iter #   2 total cpu time :    16.5 secs   av.it.:   5.2
      thresh= 7.750E-04 alpha_mix =  0.700 |ddv_scf|^2 =  2.269E-05

      iter #   3 total cpu time :    16.7 secs   av.it.:   4.9
      thresh= 4.764E-04 alpha_mix =  0.700 |ddv_scf|^2 =  4.464E-09

      iter #   4 total cpu time :    16.8 secs   av.it.:   5.3
      thresh= 6.682E-06 alpha_mix =  0.700 |ddv_scf|^2 =  2.167E-11

     End of self-consistent calculation

     Convergence has been achieved 


     Representation #  2 modes #   2  3

     Self-consistent Calculation

      iter #   1 total cpu time :    17.0 secs   av.it.:   3.5
      thresh= 1.000E-02 alpha_mix =  0.700 |ddv_scf|^2 =  2.798E-07

      iter #   2 total cpu time :    17.2 secs   av.it.:   6.1
      thresh= 5.289E-05 alpha_mix =  0.700 |ddv_scf|^2 =  3.979E-09

      iter #   3 total cpu time :    17.4 secs   av.it.:   5.7
      thresh= 6.308E-06 alpha_mix =  0.700 |ddv_scf|^2 =  3.711E-10

      iter #   4 total cpu time :    17.6 secs   av.it.:   5.5
      thresh= 1.926E-06 alpha_mix =  0.700 |ddv_scf|^2 =  1.346E-14

     End of self-consistent calculation

     Convergence has been achieved 
 
     Number of q in the star =    3
     List of q in the star:
          1   1.000000000   0.000000000   0.000000000
          2   0.000000000   1.000000000   0.000000000
          3   0.000000000   0.000000000  -1.000000000

     Diagonalizing the dynamical matrix

     q = (    1.000000000   0.000000000   0.000000000 ) 

 **************************************************************************
     freq (    1) =       6.051593 [THz] =     201.859419 [cm-1]
     freq (    2) =       6.051593 [THz] =     201.859419 [cm-1]
     freq (    3) =       9.996885 [THz] =     333.460175 [cm-1]
 **************************************************************************

     Mode symmetry, D_4h(4/mmm) point group:

     freq (  1 -  2) =        201.9  [cm-1]   --> E_u  X_5' M_5'     
     freq (  3 -  3) =        333.5  [cm-1]   --> A_2u X_4' M_4'     

     Calculation of q =    1.0000000   0.2500000   0.0000000
 
     Parallelization info
     --------------------
     sticks:   dense  smooth     PW     G-vecs:    dense   smooth      PW
     Min          60      60     30                  434      434     165
     Max          61      61     31                  435      435     166
     Sum         121     121     61                  869      869     331
 


     bravais-lattice index     =            2
     lattice parameter (alat)  =       7.5000  a.u.
     unit-cell volume          =     105.4688 (a.u.)^3
     number of atoms/cell      =            1
     number of atomic types    =            1
     number of electrons       =         3.00
     number of Kohn-Sham states=            6
     kinetic-energy cutoff     =      15.0000  Ry
     charge density cutoff     =      60.0000  Ry
     Exchange-correlation      =  SLA  PZ   NOGX NOGC ( 1  1  0  0 0 0)

     celldm(1)=   7.500000  celldm(2)=   0.000000  celldm(3)=   0.000000
     celldm(4)=   0.000000  celldm(5)=   0.000000  celldm(6)=   0.000000

     crystal axes: (cart. coord. in units of alat)
               a(1) = (  -0.500000   0.000000   0.500000 )  
               a(2) = (   0.000000   0.500000   0.500000 )  
               a(3) = (  -0.500000   0.500000   0.000000 )  

     reciprocal axes: (cart. coord. in units 2 pi/alat)
               b(1) = ( -1.000000 -1.000000  1.000000 )  
               b(2) = (  1.000000  1.000000  1.000000 )  
               b(3) = ( -1.000000  1.000000 -1.000000 )  


     PseudoPot. # 1 for Al read from file:
     /home/nvarini/espresso_hdf5/espresso/pseudo/Al.pz-vbc.UPF
     MD5 check sum: 614279c88ff8d45c90147292d03ed420
     Pseudo is Norm-conserving, Zval =  3.0
     Generated by new atomic code, or converted to UPF format
     Using radial grid of  171 points,  2 beta functions with: 
                l(1) =   0
                l(2) =   1

     atomic species   valence    mass     pseudopotential
        Al             3.00    26.98000     Al( 1.00)

     48 Sym. Ops., with inversion, found



   Cartesian axes

     site n.     atom                  positions (alat units)
         1           Al  tau(   1) = (   0.0000000   0.0000000   0.0000000  )

     number of k points=   328  Methfessel-Paxton smearing, width (Ry)=  0.0500

     Number of k-points >= 100: set verbosity='high' to print them.

     Dense  grid:      869 G-vectors     FFT dimensions: (  15,  15,  15)

     Estimated max dynamical RAM per process >       0.22Mb

     Estimated total allocated dynamical RAM >       0.43Mb

     The potential is recalculated from file :
     /home/nvarini/espresso_hdf5/espresso/tempdir/_ph0/aluminum.save/charge-density.hdf5

     Starting wfc are    4 atomic +    2 random wfc

     Band Structure Calculation
     Davidson diagonalization with overlap

     ethr =  3.33E-10,  avg # of iterations = 13.2

     total cpu time spent up to now is        9.7 secs

     End of band structure calculation

     Number of k-points >= 100: set verbosity='high' to print the bands.

     the Fermi energy is     8.1818 ev

     Writing output data file aluminum.save

                                                                                

     bravais-lattice index     =            2
     lattice parameter (alat)  =       7.5000  a.u.
     unit-cell volume          =     105.4688 (a.u.)^3
     number of atoms/cell      =            1
     number of atomic types    =            1
     kinetic-energy cut-off    =      15.0000  Ry
     charge density cut-off    =      60.0000  Ry
     convergence threshold     =      1.0E-10
     beta                      =       0.7000
     number of iterations used =            4
     Exchange-correlation      =  SLA  PZ   NOGX NOGC ( 1  1  0  0 0 0)


     celldm(1)=    7.50000  celldm(2)=    0.00000  celldm(3)=    0.00000
     celldm(4)=    0.00000  celldm(5)=    0.00000  celldm(6)=    0.00000

     crystal axes: (cart. coord. in units of alat)
               a(1) = ( -0.5000  0.0000  0.5000 )  
               a(2) = (  0.0000  0.5000  0.5000 )  
               a(3) = ( -0.5000  0.5000  0.0000 )  

     reciprocal axes: (cart. coord. in units 2 pi/alat)
               b(1) = ( -1.0000 -1.0000  1.0000 )  
               b(2) = (  1.0000  1.0000  1.0000 )  
               b(3) = ( -1.0000  1.0000 -1.0000 )  


     Atoms inside the unit cell: 

     Cartesian axes

     site n.  atom      mass           positions (alat units)
        1     Al  26.9800   tau(    1) = (    0.00000    0.00000    0.00000  )

     Computing dynamical matrix for 
                    q = (   1.0000000   0.2500000   0.0000000 )
 
      4 Sym.Ops. (no q -> -q+G )


     G cutoff =   85.4897  (    435 G-vectors)     FFT grid: ( 15, 15, 15)

     number of k points=   328  Methfessel-Paxton smearing, width (Ry)=  0.0500

     PseudoPot. # 1 for Al read from file:
     /home/nvarini/espresso_hdf5/espresso/pseudo/Al.pz-vbc.UPF
     MD5 check sum: 614279c88ff8d45c90147292d03ed420
     Pseudo is Norm-conserving, Zval =  3.0
     Generated by new atomic code, or converted to UPF format
     Using radial grid of  171 points,  2 beta functions with: 
                l(1) =   0
                l(2) =   1

     Mode symmetry, C_2v (mm2)  point group:


     Atomic displacements:
     There are   3 irreducible representations

     Representation     1      1 modes -A_1  D_1  S_1  To be done

     Representation     2      1 modes -B_1  D_3  S_3  To be done

     Representation     3      1 modes -B_2  D_4  S_4  To be done



     Alpha used in Ewald sum =   0.7000
     PHONON       :    19.41s CPU        20.98s WALL



     Representation #  1 mode #   1

     Self-consistent Calculation

      iter #   1 total cpu time :    21.3 secs   av.it.:   3.7
      thresh= 1.000E-02 alpha_mix =  0.700 |ddv_scf|^2 =  4.687E-06

      iter #   2 total cpu time :    21.7 secs   av.it.:   5.8
      thresh= 2.165E-04 alpha_mix =  0.700 |ddv_scf|^2 =  9.013E-07

      iter #   3 total cpu time :    22.0 secs   av.it.:   5.5
      thresh= 9.494E-05 alpha_mix =  0.700 |ddv_scf|^2 =  1.714E-08

      iter #   4 total cpu time :    22.3 secs   av.it.:   5.6
      thresh= 1.309E-05 alpha_mix =  0.700 |ddv_scf|^2 =  6.295E-10

      iter #   5 total cpu time :    22.6 secs   av.it.:   5.4
      thresh= 2.509E-06 alpha_mix =  0.700 |ddv_scf|^2 =  2.493E-13

     End of self-consistent calculation

     Convergence has been achieved 


     Representation #  2 mode #   2

     Self-consistent Calculation

      iter #   1 total cpu time :    23.0 secs   av.it.:   3.9
      thresh= 1.000E-02 alpha_mix =  0.700 |ddv_scf|^2 =  5.053E-05

      iter #   2 total cpu time :    23.3 secs   av.it.:   5.4
      thresh= 7.109E-04 alpha_mix =  0.700 |ddv_scf|^2 =  2.001E-05

      iter #   3 total cpu time :    23.6 secs   av.it.:   5.1
      thresh= 4.473E-04 alpha_mix =  0.700 |ddv_scf|^2 =  4.475E-09

      iter #   4 total cpu time :    24.0 secs   av.it.:   5.4
      thresh= 6.690E-06 alpha_mix =  0.700 |ddv_scf|^2 =  1.835E-11

     End of self-consistent calculation

     Convergence has been achieved 


     Representation #  3 mode #   3

     Self-consistent Calculation

      iter #   1 total cpu time :    24.3 secs   av.it.:   3.6
      thresh= 1.000E-02 alpha_mix =  0.700 |ddv_scf|^2 =  3.877E-06

      iter #   2 total cpu time :    24.6 secs   av.it.:   5.5
      thresh= 1.969E-04 alpha_mix =  0.700 |ddv_scf|^2 =  1.924E-07

      iter #   3 total cpu time :    25.0 secs   av.it.:   5.4
      thresh= 4.387E-05 alpha_mix =  0.700 |ddv_scf|^2 =  2.445E-09

      iter #   4 total cpu time :    25.3 secs   av.it.:   5.2
      thresh= 4.945E-06 alpha_mix =  0.700 |ddv_scf|^2 =  2.480E-12

     End of self-consistent calculation

     Convergence has been achieved 
 
     Number of q in the star =   12
     List of q in the star:
          1   1.000000000   0.250000000   0.000000000
          2   1.000000000  -0.250000000   0.000000000
          3   1.000000000   0.000000000   0.250000000
          4   1.000000000   0.000000000  -0.250000000
          5   0.250000000   1.000000000   0.000000000
          6  -0.250000000   0.000000000  -1.000000000
          7   0.250000000   0.000000000  -1.000000000
          8   0.000000000  -1.000000000  -0.250000000
          9   0.000000000  -1.000000000   0.250000000
         10   0.000000000  -0.250000000   1.000000000
         11   0.000000000   0.250000000   1.000000000
         12  -0.250000000  -1.000000000   0.000000000

     Diagonalizing the dynamical matrix

     q = (    1.000000000   0.250000000   0.000000000 ) 

 **************************************************************************
     freq (    1) =       6.514962 [THz] =     217.315727 [cm-1]
     freq (    2) =       6.714531 [THz] =     223.972647 [cm-1]
     freq (    3) =       8.747442 [THz] =     291.783258 [cm-1]
 **************************************************************************

     Mode symmetry, C_2v (mm2)  point group:

     freq (  1 -  1) =        217.3  [cm-1]   --> A_1  D_1  S_1      
     freq (  2 -  2) =        224.0  [cm-1]   --> B_2  D_4  S_4      
     freq (  3 -  3) =        291.8  [cm-1]   --> B_1  D_3  S_3      

     Calculation of q =    1.0000000   0.5000000   0.0000000
 
     Parallelization info
     --------------------
     sticks:   dense  smooth     PW     G-vecs:    dense   smooth      PW
     Min          60      60     30                  434      434     165
     Max          61      61     31                  435      435     166
     Sum         121     121     61                  869      869     331
 


     bravais-lattice index     =            2
     lattice parameter (alat)  =       7.5000  a.u.
     unit-cell volume          =     105.4688 (a.u.)^3
     number of atoms/cell      =            1
     number of atomic types    =            1
     number of electrons       =         3.00
     number of Kohn-Sham states=            6
     kinetic-energy cutoff     =      15.0000  Ry
     charge density cutoff     =      60.0000  Ry
     Exchange-correlation      =  SLA  PZ   NOGX NOGC ( 1  1  0  0 0 0)

     celldm(1)=   7.500000  celldm(2)=   0.000000  celldm(3)=   0.000000
     celldm(4)=   0.000000  celldm(5)=   0.000000  celldm(6)=   0.000000

     crystal axes: (cart. coord. in units of alat)
               a(1) = (  -0.500000   0.000000   0.500000 )  
               a(2) = (   0.000000   0.500000   0.500000 )  
               a(3) = (  -0.500000   0.500000   0.000000 )  

     reciprocal axes: (cart. coord. in units 2 pi/alat)
               b(1) = ( -1.000000 -1.000000  1.000000 )  
               b(2) = (  1.000000  1.000000  1.000000 )  
               b(3) = ( -1.000000  1.000000 -1.000000 )  


     PseudoPot. # 1 for Al read from file:
     /home/nvarini/espresso_hdf5/espresso/pseudo/Al.pz-vbc.UPF
     MD5 check sum: 614279c88ff8d45c90147292d03ed420
     Pseudo is Norm-conserving, Zval =  3.0
     Generated by new atomic code, or converted to UPF format
     Using radial grid of  171 points,  2 beta functions with: 
                l(1) =   0
                l(2) =   1

     atomic species   valence    mass     pseudopotential
        Al             3.00    26.98000     Al( 1.00)

     48 Sym. Ops., with inversion, found



   Cartesian axes

     site n.     atom                  positions (alat units)
         1           Al  tau(   1) = (   0.0000000   0.0000000   0.0000000  )

     number of k points=   174  Methfessel-Paxton smearing, width (Ry)=  0.0500

     Number of k-points >= 100: set verbosity='high' to print them.

     Dense  grid:      869 G-vectors     FFT dimensions: (  15,  15,  15)

     Estimated max dynamical RAM per process >       0.22Mb

     Estimated total allocated dynamical RAM >       0.43Mb

     The potential is recalculated from file :
     /home/nvarini/espresso_hdf5/espresso/tempdir/_ph0/aluminum.save/charge-density.hdf5

     Starting wfc are    4 atomic +    2 random wfc

     Band Structure Calculation
     Davidson diagonalization with overlap

     ethr =  3.33E-10,  avg # of iterations = 13.3

     total cpu time spent up to now is       11.6 secs

     End of band structure calculation

     Number of k-points >= 100: set verbosity='high' to print the bands.

     the Fermi energy is     8.1818 ev

     Writing output data file aluminum.save

                                                                                

     bravais-lattice index     =            2
     lattice parameter (alat)  =       7.5000  a.u.
     unit-cell volume          =     105.4688 (a.u.)^3
     number of atoms/cell      =            1
     number of atomic types    =            1
     kinetic-energy cut-off    =      15.0000  Ry
     charge density cut-off    =      60.0000  Ry
     convergence threshold     =      1.0E-10
     beta                      =       0.7000
     number of iterations used =            4
     Exchange-correlation      =  SLA  PZ   NOGX NOGC ( 1  1  0  0 0 0)


     celldm(1)=    7.50000  celldm(2)=    0.00000  celldm(3)=    0.00000
     celldm(4)=    0.00000  celldm(5)=    0.00000  celldm(6)=    0.00000

     crystal axes: (cart. coord. in units of alat)
               a(1) = ( -0.5000  0.0000  0.5000 )  
               a(2) = (  0.0000  0.5000  0.5000 )  
               a(3) = ( -0.5000  0.5000  0.0000 )  

     reciprocal axes: (cart. coord. in units 2 pi/alat)
               b(1) = ( -1.0000 -1.0000  1.0000 )  
               b(2) = (  1.0000  1.0000  1.0000 )  
               b(3) = ( -1.0000  1.0000 -1.0000 )  


     Atoms inside the unit cell: 

     Cartesian axes

     site n.  atom      mass           positions (alat units)
        1     Al  26.9800   tau(    1) = (    0.00000    0.00000    0.00000  )

     Computing dynamical matrix for 
                    q = (   1.0000000   0.5000000   0.0000000 )
 
      8 Sym.Ops. (no q -> -q+G )


     G cutoff =   85.4897  (    435 G-vectors)     FFT grid: ( 15, 15, 15)

     number of k points=   174  Methfessel-Paxton smearing, width (Ry)=  0.0500

     PseudoPot. # 1 for Al read from file:
     /home/nvarini/espresso_hdf5/espresso/pseudo/Al.pz-vbc.UPF
     MD5 check sum: 614279c88ff8d45c90147292d03ed420
     Pseudo is Norm-conserving, Zval =  3.0
     Generated by new atomic code, or converted to UPF format
     Using radial grid of  171 points,  2 beta functions with: 
                l(1) =   0
                l(2) =   1

     Mode symmetry, D_2d (-42m) point group:


     Atomic displacements:
     There are   2 irreducible representations

     Representation     1      1 modes -B_2  X_3  W_2  To be done

     Representation     2      2 modes -E    X_5  W_3  To be done



     Alpha used in Ewald sum =   0.7000
     PHONON       :    25.16s CPU        27.17s WALL



     Representation #  1 mode #   1

     Self-consistent Calculation

      iter #   1 total cpu time :    27.3 secs   av.it.:   3.8
      thresh= 1.000E-02 alpha_mix =  0.700 |ddv_scf|^2 =  8.154E-06

      iter #   2 total cpu time :    27.5 secs   av.it.:   5.7
      thresh= 2.856E-04 alpha_mix =  0.700 |ddv_scf|^2 =  1.193E-06

      iter #   3 total cpu time :    27.7 secs   av.it.:   5.5
      thresh= 1.092E-04 alpha_mix =  0.700 |ddv_scf|^2 =  3.327E-09

      iter #   4 total cpu time :    27.9 secs   av.it.:   5.5
      thresh= 5.768E-06 alpha_mix =  0.700 |ddv_scf|^2 =  5.704E-12

     End of self-consistent calculation

     Convergence has been achieved 


     Representation #  2 modes #   2  3

     Self-consistent Calculation

      iter #   1 total cpu time :    28.2 secs   av.it.:   3.7
      thresh= 1.000E-02 alpha_mix =  0.700 |ddv_scf|^2 =  4.585E-06

      iter #   2 total cpu time :    28.5 secs   av.it.:   6.2
      thresh= 2.141E-04 alpha_mix =  0.700 |ddv_scf|^2 =  8.887E-07

      iter #   3 total cpu time :    28.8 secs   av.it.:   5.9
      thresh= 9.427E-05 alpha_mix =  0.700 |ddv_scf|^2 =  8.942E-10

      iter #   4 total cpu time :    29.1 secs   av.it.:   5.9
      thresh= 2.990E-06 alpha_mix =  0.700 |ddv_scf|^2 =  8.407E-13

     End of self-consistent calculation

     Convergence has been achieved 
 
     Number of q in the star =    6
     List of q in the star:
          1   1.000000000   0.500000000   0.000000000
          2  -1.000000000  -0.500000000   0.000000000
          3  -1.000000000   0.000000000   0.500000000
          4  -1.000000000   0.000000000  -0.500000000
          5   0.500000000   1.000000000   0.000000000
          6   0.500000000   0.000000000  -1.000000000

     Diagonalizing the dynamical matrix

     q = (    1.000000000   0.500000000   0.000000000 ) 

 **************************************************************************
     freq (    1) =       6.511834 [THz] =     217.211389 [cm-1]
     freq (    2) =       7.826199 [THz] =     261.053905 [cm-1]
     freq (    3) =       7.826199 [THz] =     261.053905 [cm-1]
 **************************************************************************

     Mode symmetry, D_2d (-42m) point group:

     freq (  1 -  1) =        217.2  [cm-1]   --> B_2  X_3  W_2      
     freq (  2 -  3) =        261.1  [cm-1]   --> E    X_5  W_3      

     Calculation of q =    1.0000000   0.7500000   0.0000000
 
     Parallelization info
     --------------------
     sticks:   dense  smooth     PW     G-vecs:    dense   smooth      PW
     Min          60      60     30                  434      434     165
     Max          61      61     31                  435      435     166
     Sum         121     121     61                  869      869     331
 


     bravais-lattice index     =            2
     lattice parameter (alat)  =       7.5000  a.u.
     unit-cell volume          =     105.4688 (a.u.)^3
     number of atoms/cell      =            1
     number of atomic types    =            1
     number of electrons       =         3.00
     number of Kohn-Sham states=            6
     kinetic-energy cutoff     =      15.0000  Ry
     charge density cutoff     =      60.0000  Ry
     Exchange-correlation      =  SLA  PZ   NOGX NOGC ( 1  1  0  0 0 0)

     celldm(1)=   7.500000  celldm(2)=   0.000000  celldm(3)=   0.000000
     celldm(4)=   0.000000  celldm(5)=   0.000000  celldm(6)=   0.000000

     crystal axes: (cart. coord. in units of alat)
               a(1) = (  -0.500000   0.000000   0.500000 )  
               a(2) = (   0.000000   0.500000   0.500000 )  
               a(3) = (  -0.500000   0.500000   0.000000 )  

     reciprocal axes: (cart. coord. in units 2 pi/alat)
               b(1) = ( -1.000000 -1.000000  1.000000 )  
               b(2) = (  1.000000  1.000000  1.000000 )  
               b(3) = ( -1.000000  1.000000 -1.000000 )  


     PseudoPot. # 1 for Al read from file:
     /home/nvarini/espresso_hdf5/espresso/pseudo/Al.pz-vbc.UPF
     MD5 check sum: 614279c88ff8d45c90147292d03ed420
     Pseudo is Norm-conserving, Zval =  3.0
     Generated by new atomic code, or converted to UPF format
     Using radial grid of  171 points,  2 beta functions with: 
                l(1) =   0
                l(2) =   1

     atomic species   valence    mass     pseudopotential
        Al             3.00    26.98000     Al( 1.00)

     48 Sym. Ops., with inversion, found



   Cartesian axes

     site n.     atom                  positions (alat units)
         1           Al  tau(   1) = (   0.0000000   0.0000000   0.0000000  )

     number of k points=   328  Methfessel-Paxton smearing, width (Ry)=  0.0500

     Number of k-points >= 100: set verbosity='high' to print them.

     Dense  grid:      869 G-vectors     FFT dimensions: (  15,  15,  15)

     Estimated max dynamical RAM per process >       0.22Mb

     Estimated total allocated dynamical RAM >       0.43Mb

     The potential is recalculated from file :
     /home/nvarini/espresso_hdf5/espresso/tempdir/_ph0/aluminum.save/charge-density.hdf5

     Starting wfc are    4 atomic +    2 random wfc

     Band Structure Calculation
     Davidson diagonalization with overlap

     ethr =  3.33E-10,  avg # of iterations = 13.2

     total cpu time spent up to now is       14.5 secs

     End of band structure calculation

     Number of k-points >= 100: set verbosity='high' to print the bands.

     the Fermi energy is     8.1818 ev

     Writing output data file aluminum.save

                                                                                

     bravais-lattice index     =            2
     lattice parameter (alat)  =       7.5000  a.u.
     unit-cell volume          =     105.4688 (a.u.)^3
     number of atoms/cell      =            1
     number of atomic types    =            1
     kinetic-energy cut-off    =      15.0000  Ry
     charge density cut-off    =      60.0000  Ry
     convergence threshold     =      1.0E-10
     beta                      =       0.7000
     number of iterations used =            4
     Exchange-correlation      =  SLA  PZ   NOGX NOGC ( 1  1  0  0 0 0)


     celldm(1)=    7.50000  celldm(2)=    0.00000  celldm(3)=    0.00000
     celldm(4)=    0.00000  celldm(5)=    0.00000  celldm(6)=    0.00000

     crystal axes: (cart. coord. in units of alat)
               a(1) = ( -0.5000  0.0000  0.5000 )  
               a(2) = (  0.0000  0.5000  0.5000 )  
               a(3) = ( -0.5000  0.5000  0.0000 )  

     reciprocal axes: (cart. coord. in units 2 pi/alat)
               b(1) = ( -1.0000 -1.0000  1.0000 )  
               b(2) = (  1.0000  1.0000  1.0000 )  
               b(3) = ( -1.0000  1.0000 -1.0000 )  


     Atoms inside the unit cell: 

     Cartesian axes

     site n.  atom      mass           positions (alat units)
        1     Al  26.9800   tau(    1) = (    0.00000    0.00000    0.00000  )

     Computing dynamical matrix for 
                    q = (   1.0000000   0.7500000   0.0000000 )
 
      4 Sym.Ops. (no q -> -q+G )


     G cutoff =   85.4897  (    435 G-vectors)     FFT grid: ( 15, 15, 15)

     number of k points=   328  Methfessel-Paxton smearing, width (Ry)=  0.0500

     PseudoPot. # 1 for Al read from file:
     /home/nvarini/espresso_hdf5/espresso/pseudo/Al.pz-vbc.UPF
     MD5 check sum: 614279c88ff8d45c90147292d03ed420
     Pseudo is Norm-conserving, Zval =  3.0
     Generated by new atomic code, or converted to UPF format
     Using radial grid of  171 points,  2 beta functions with: 
                l(1) =   0
                l(2) =   1

     Mode symmetry, C_2v (mm2)  point group:


     Atomic displacements:
     There are   3 irreducible representations

     Representation     1      1 modes -A_1  D_1  S_1  To be done

     Representation     2      1 modes -B_1  D_3  S_3  To be done

     Representation     3      1 modes -B_2  D_4  S_4  To be done



     Alpha used in Ewald sum =   0.7000
     PHONON       :    30.15s CPU        32.48s WALL



     Representation #  1 mode #   1

     Self-consistent Calculation

      iter #   1 total cpu time :    32.8 secs   av.it.:   3.7
      thresh= 1.000E-02 alpha_mix =  0.700 |ddv_scf|^2 =  4.687E-06

      iter #   2 total cpu time :    33.2 secs   av.it.:   5.8
      thresh= 2.165E-04 alpha_mix =  0.700 |ddv_scf|^2 =  9.016E-07

      iter #   3 total cpu time :    33.5 secs   av.it.:   5.5
      thresh= 9.495E-05 alpha_mix =  0.700 |ddv_scf|^2 =  1.713E-08

      iter #   4 total cpu time :    33.8 secs   av.it.:   5.6
      thresh= 1.309E-05 alpha_mix =  0.700 |ddv_scf|^2 =  6.294E-10

      iter #   5 total cpu time :    34.1 secs   av.it.:   5.4
      thresh= 2.509E-06 alpha_mix =  0.700 |ddv_scf|^2 =  2.473E-13

     End of self-consistent calculation

     Convergence has been achieved 


     Representation #  2 mode #   2

     Self-consistent Calculation

      iter #   1 total cpu time :    34.5 secs   av.it.:   3.6
      thresh= 1.000E-02 alpha_mix =  0.700 |ddv_scf|^2 =  3.877E-06

      iter #   2 total cpu time :    34.8 secs   av.it.:   5.5
      thresh= 1.969E-04 alpha_mix =  0.700 |ddv_scf|^2 =  1.924E-07

      iter #   3 total cpu time :    35.1 secs   av.it.:   5.4
      thresh= 4.387E-05 alpha_mix =  0.700 |ddv_scf|^2 =  2.445E-09

      iter #   4 total cpu time :    35.5 secs   av.it.:   5.2
      thresh= 4.945E-06 alpha_mix =  0.700 |ddv_scf|^2 =  2.486E-12

     End of self-consistent calculation

     Convergence has been achieved 


     Representation #  3 mode #   3

     Self-consistent Calculation

      iter #   1 total cpu time :    35.8 secs   av.it.:   3.9
      thresh= 1.000E-02 alpha_mix =  0.700 |ddv_scf|^2 =  5.053E-05

      iter #   2 total cpu time :    36.1 secs   av.it.:   5.4
      thresh= 7.109E-04 alpha_mix =  0.700 |ddv_scf|^2 =  2.001E-05

      iter #   3 total cpu time :    36.5 secs   av.it.:   5.1
      thresh= 4.473E-04 alpha_mix =  0.700 |ddv_scf|^2 =  4.475E-09

      iter #   4 total cpu time :    36.8 secs   av.it.:   5.4
      thresh= 6.690E-06 alpha_mix =  0.700 |ddv_scf|^2 =  1.837E-11

     End of self-consistent calculation

     Convergence has been achieved 
 
     Number of q in the star =   12
     List of q in the star:
          1   1.000000000   0.750000000   0.000000000
          2   0.000000000  -0.750000000   1.000000000
          3  -1.000000000  -0.750000000   0.000000000
          4  -1.000000000   0.000000000   0.750000000
          5  -1.000000000   0.000000000  -0.750000000
          6   0.750000000   1.000000000   0.000000000
          7  -0.750000000   0.000000000  -1.000000000
          8   0.750000000   0.000000000  -1.000000000
          9   0.000000000  -1.000000000  -0.750000000
         10   0.000000000  -1.000000000   0.750000000
         11   0.000000000   0.750000000   1.000000000
         12  -0.750000000  -1.000000000   0.000000000

     Diagonalizing the dynamical matrix

     q = (    1.000000000   0.750000000   0.000000000 ) 

 **************************************************************************
     freq (    1) =       6.514947 [THz] =     217.315229 [cm-1]
     freq (    2) =       6.714514 [THz] =     223.972086 [cm-1]
     freq (    3) =       8.747477 [THz] =     291.784414 [cm-1]
 **************************************************************************

     Mode symmetry, C_2v (mm2)  point group:

     freq (  1 -  1) =        217.3  [cm-1]   --> A_1  D_1  S_1      
     freq (  2 -  2) =        224.0  [cm-1]   --> B_1  D_3  S_3      
     freq (  3 -  3) =        291.8  [cm-1]   --> B_2  D_4  S_4      

     Calculation of q =    1.0000000   1.0000000   0.0000000
 
     Parallelization info
     --------------------
     sticks:   dense  smooth     PW     G-vecs:    dense   smooth      PW
     Min          60      60     30                  434      434     165
     Max          61      61     31                  435      435     166
     Sum         121     121     61                  869      869     331
 


     bravais-lattice index     =            2
     lattice parameter (alat)  =       7.5000  a.u.
     unit-cell volume          =     105.4688 (a.u.)^3
     number of atoms/cell      =            1
     number of atomic types    =            1
     number of electrons       =         3.00
     number of Kohn-Sham states=            6
     kinetic-energy cutoff     =      15.0000  Ry
     charge density cutoff     =      60.0000  Ry
     Exchange-correlation      =  SLA  PZ   NOGX NOGC ( 1  1  0  0 0 0)

     celldm(1)=   7.500000  celldm(2)=   0.000000  celldm(3)=   0.000000
     celldm(4)=   0.000000  celldm(5)=   0.000000  celldm(6)=   0.000000

     crystal axes: (cart. coord. in units of alat)
               a(1) = (  -0.500000   0.000000   0.500000 )  
               a(2) = (   0.000000   0.500000   0.500000 )  
               a(3) = (  -0.500000   0.500000   0.000000 )  

     reciprocal axes: (cart. coord. in units 2 pi/alat)
               b(1) = ( -1.000000 -1.000000  1.000000 )  
               b(2) = (  1.000000  1.000000  1.000000 )  
               b(3) = ( -1.000000  1.000000 -1.000000 )  


     PseudoPot. # 1 for Al read from file:
     /home/nvarini/espresso_hdf5/espresso/pseudo/Al.pz-vbc.UPF
     MD5 check sum: 614279c88ff8d45c90147292d03ed420
     Pseudo is Norm-conserving, Zval =  3.0
     Generated by new atomic code, or converted to UPF format
     Using radial grid of  171 points,  2 beta functions with: 
                l(1) =   0
                l(2) =   1

     atomic species   valence    mass     pseudopotential
        Al             3.00    26.98000     Al( 1.00)

     48 Sym. Ops., with inversion, found



   Cartesian axes

     site n.     atom                  positions (alat units)
         1           Al  tau(   1) = (   0.0000000   0.0000000   0.0000000  )

     number of k points=   118  Methfessel-Paxton smearing, width (Ry)=  0.0500

     Number of k-points >= 100: set verbosity='high' to print them.

     Dense  grid:      869 G-vectors     FFT dimensions: (  15,  15,  15)

     Estimated max dynamical RAM per process >       0.22Mb

     Estimated total allocated dynamical RAM >       0.43Mb

     The potential is recalculated from file :
     /home/nvarini/espresso_hdf5/espresso/tempdir/_ph0/aluminum.save/charge-density.hdf5

     Starting wfc are    4 atomic +    2 random wfc

     Band Structure Calculation
     Davidson diagonalization with overlap

     ethr =  3.33E-10,  avg # of iterations = 13.1

     total cpu time spent up to now is       16.0 secs

     End of band structure calculation

     Number of k-points >= 100: set verbosity='high' to print the bands.

     the Fermi energy is     8.1818 ev

     Writing output data file aluminum.save

                                                                                

     bravais-lattice index     =            2
     lattice parameter (alat)  =       7.5000  a.u.
     unit-cell volume          =     105.4688 (a.u.)^3
     number of atoms/cell      =            1
     number of atomic types    =            1
     kinetic-energy cut-off    =      15.0000  Ry
     charge density cut-off    =      60.0000  Ry
     convergence threshold     =      1.0E-10
     beta                      =       0.7000
     number of iterations used =            4
     Exchange-correlation      =  SLA  PZ   NOGX NOGC ( 1  1  0  0 0 0)


     celldm(1)=    7.50000  celldm(2)=    0.00000  celldm(3)=    0.00000
     celldm(4)=    0.00000  celldm(5)=    0.00000  celldm(6)=    0.00000

     crystal axes: (cart. coord. in units of alat)
               a(1) = ( -0.5000  0.0000  0.5000 )  
               a(2) = (  0.0000  0.5000  0.5000 )  
               a(3) = ( -0.5000  0.5000  0.0000 )  

     reciprocal axes: (cart. coord. in units 2 pi/alat)
               b(1) = ( -1.0000 -1.0000  1.0000 )  
               b(2) = (  1.0000  1.0000  1.0000 )  
               b(3) = ( -1.0000  1.0000 -1.0000 )  


     Atoms inside the unit cell: 

     Cartesian axes

     site n.  atom      mass           positions (alat units)
        1     Al  26.9800   tau(    1) = (    0.00000    0.00000    0.00000  )

     Computing dynamical matrix for 
                    q = (   1.0000000   1.0000000   0.0000000 )
 
     17 Sym.Ops. (with q -> -q+G )


     G cutoff =   85.4897  (    435 G-vectors)     FFT grid: ( 15, 15, 15)

     number of k points=   118  Methfessel-Paxton smearing, width (Ry)=  0.0500

     PseudoPot. # 1 for Al read from file:
     /home/nvarini/espresso_hdf5/espresso/pseudo/Al.pz-vbc.UPF
     MD5 check sum: 614279c88ff8d45c90147292d03ed420
     Pseudo is Norm-conserving, Zval =  3.0
     Generated by new atomic code, or converted to UPF format
     Using radial grid of  171 points,  2 beta functions with: 
                l(1) =   0
                l(2) =   1

     Mode symmetry, D_4h(4/mmm) point group:


     Atomic displacements:
     There are   2 irreducible representations

     Representation     1      1 modes -A_2u X_4' M_4'  To be done

     Representation     2      2 modes -E_u  X_5' M_5'  To be done



     Alpha used in Ewald sum =   0.7000
     PHONON       :    35.42s CPU        38.08s WALL



     Representation #  1 mode #   1

     Self-consistent Calculation

      iter #   1 total cpu time :    38.2 secs   av.it.:   3.8
      thresh= 1.000E-02 alpha_mix =  0.700 |ddv_scf|^2 =  6.006E-05

      iter #   2 total cpu time :    38.3 secs   av.it.:   5.2
      thresh= 7.750E-04 alpha_mix =  0.700 |ddv_scf|^2 =  2.269E-05

      iter #   3 total cpu time :    38.5 secs   av.it.:   4.9
      thresh= 4.764E-04 alpha_mix =  0.700 |ddv_scf|^2 =  4.464E-09

      iter #   4 total cpu time :    38.6 secs   av.it.:   5.3
      thresh= 6.681E-06 alpha_mix =  0.700 |ddv_scf|^2 =  2.167E-11

     End of self-consistent calculation

     Convergence has been achieved 


     Representation #  2 modes #   2  3

     Self-consistent Calculation

      iter #   1 total cpu time :    38.8 secs   av.it.:   3.5
      thresh= 1.000E-02 alpha_mix =  0.700 |ddv_scf|^2 =  2.794E-07

      iter #   2 total cpu time :    39.0 secs   av.it.:   6.1
      thresh= 5.285E-05 alpha_mix =  0.700 |ddv_scf|^2 =  3.948E-09

      iter #   3 total cpu time :    39.2 secs   av.it.:   5.7
      thresh= 6.283E-06 alpha_mix =  0.700 |ddv_scf|^2 =  3.696E-10

      iter #   4 total cpu time :    39.4 secs   av.it.:   5.5
      thresh= 1.923E-06 alpha_mix =  0.700 |ddv_scf|^2 =  1.531E-14

     End of self-consistent calculation

     Convergence has been achieved 
 
     Number of q in the star =    3
     List of q in the star:
          1   1.000000000   1.000000000   0.000000000
          2   0.000000000  -1.000000000  -1.000000000
          3  -1.000000000   0.000000000  -1.000000000

     Diagonalizing the dynamical matrix

     q = (    1.000000000   1.000000000   0.000000000 ) 

 **************************************************************************
     freq (    1) =       6.051639 [THz] =     201.860957 [cm-1]
     freq (    2) =       6.051639 [THz] =     201.860957 [cm-1]
     freq (    3) =       9.996879 [THz] =     333.459988 [cm-1]
 **************************************************************************

     Mode symmetry, D_4h(4/mmm) point group:

     freq (  1 -  2) =        201.9  [cm-1]   --> E_u  X_5' M_5'     
     freq (  3 -  3) =        333.5  [cm-1]   --> A_2u X_4' M_4'     

     Calculation of q =    0.7500000   0.7500000   0.0000000
 
     Parallelization info
     --------------------
     sticks:   dense  smooth     PW     G-vecs:    dense   smooth      PW
     Min          60      60     30                  434      434     165
     Max          61      61     31                  435      435     166
     Sum         121     121     61                  869      869     331
 


     bravais-lattice index     =            2
     lattice parameter (alat)  =       7.5000  a.u.
     unit-cell volume          =     105.4688 (a.u.)^3
     number of atoms/cell      =            1
     number of atomic types    =            1
     number of electrons       =         3.00
     number of Kohn-Sham states=            6
     kinetic-energy cutoff     =      15.0000  Ry
     charge density cutoff     =      60.0000  Ry
     Exchange-correlation      =  SLA  PZ   NOGX NOGC ( 1  1  0  0 0 0)

     celldm(1)=   7.500000  celldm(2)=   0.000000  celldm(3)=   0.000000
     celldm(4)=   0.000000  celldm(5)=   0.000000  celldm(6)=   0.000000

     crystal axes: (cart. coord. in units of alat)
               a(1) = (  -0.500000   0.000000   0.500000 )  
               a(2) = (   0.000000   0.500000   0.500000 )  
               a(3) = (  -0.500000   0.500000   0.000000 )  

     reciprocal axes: (cart. coord. in units 2 pi/alat)
               b(1) = ( -1.000000 -1.000000  1.000000 )  
               b(2) = (  1.000000  1.000000  1.000000 )  
               b(3) = ( -1.000000  1.000000 -1.000000 )  


     PseudoPot. # 1 for Al read from file:
     /home/nvarini/espresso_hdf5/espresso/pseudo/Al.pz-vbc.UPF
     MD5 check sum: 614279c88ff8d45c90147292d03ed420
     Pseudo is Norm-conserving, Zval =  3.0
     Generated by new atomic code, or converted to UPF format
     Using radial grid of  171 points,  2 beta functions with: 
                l(1) =   0
                l(2) =   1

     atomic species   valence    mass     pseudopotential
        Al             3.00    26.98000     Al( 1.00)

     48 Sym. Ops., with inversion, found



   Cartesian axes

     site n.     atom                  positions (alat units)
         1           Al  tau(   1) = (   0.0000000   0.0000000   0.0000000  )

     number of k points=   328  Methfessel-Paxton smearing, width (Ry)=  0.0500

     Number of k-points >= 100: set verbosity='high' to print them.

     Dense  grid:      869 G-vectors     FFT dimensions: (  15,  15,  15)

     Estimated max dynamical RAM per process >       0.22Mb

     Estimated total allocated dynamical RAM >       0.43Mb

     The potential is recalculated from file :
     /home/nvarini/espresso_hdf5/espresso/tempdir/_ph0/aluminum.save/charge-density.hdf5

     Starting wfc are    4 atomic +    2 random wfc

     Band Structure Calculation
     Davidson diagonalization with overlap

     ethr =  3.33E-10,  avg # of iterations = 13.4

     total cpu time spent up to now is       18.9 secs

     End of band structure calculation

     Number of k-points >= 100: set verbosity='high' to print the bands.

     the Fermi energy is     8.1818 ev

     Writing output data file aluminum.save

                                                                                

     bravais-lattice index     =            2
     lattice parameter (alat)  =       7.5000  a.u.
     unit-cell volume          =     105.4688 (a.u.)^3
     number of atoms/cell      =            1
     number of atomic types    =            1
     kinetic-energy cut-off    =      15.0000  Ry
     charge density cut-off    =      60.0000  Ry
     convergence threshold     =      1.0E-10
     beta                      =       0.7000
     number of iterations used =            4
     Exchange-correlation      =  SLA  PZ   NOGX NOGC ( 1  1  0  0 0 0)


     celldm(1)=    7.50000  celldm(2)=    0.00000  celldm(3)=    0.00000
     celldm(4)=    0.00000  celldm(5)=    0.00000  celldm(6)=    0.00000

     crystal axes: (cart. coord. in units of alat)
               a(1) = ( -0.5000  0.0000  0.5000 )  
               a(2) = (  0.0000  0.5000  0.5000 )  
               a(3) = ( -0.5000  0.5000  0.0000 )  

     reciprocal axes: (cart. coord. in units 2 pi/alat)
               b(1) = ( -1.0000 -1.0000  1.0000 )  
               b(2) = (  1.0000  1.0000  1.0000 )  
               b(3) = ( -1.0000  1.0000 -1.0000 )  


     Atoms inside the unit cell: 

     Cartesian axes

     site n.  atom      mass           positions (alat units)
        1     Al  26.9800   tau(    1) = (    0.00000    0.00000    0.00000  )

     Computing dynamical matrix for 
                    q = (   0.7500000   0.7500000   0.0000000 )
 
      4 Sym.Ops. (no q -> -q+G )


     G cutoff =   85.4897  (    435 G-vectors)     FFT grid: ( 15, 15, 15)

     number of k points=   328  Methfessel-Paxton smearing, width (Ry)=  0.0500

     PseudoPot. # 1 for Al read from file:
     /home/nvarini/espresso_hdf5/espresso/pseudo/Al.pz-vbc.UPF
     MD5 check sum: 614279c88ff8d45c90147292d03ed420
     Pseudo is Norm-conserving, Zval =  3.0
     Generated by new atomic code, or converted to UPF format
     Using radial grid of  171 points,  2 beta functions with: 
                l(1) =   0
                l(2) =   1

     Mode symmetry, C_2v (mm2)  point group:


     Atomic displacements:
     There are   3 irreducible representations

     Representation     1      1 modes -A_1  D_1  S_1  To be done

     Representation     2      1 modes -B_1  D_3  S_3  To be done

     Representation     3      1 modes -B_2  D_4  S_4  To be done



     Alpha used in Ewald sum =   0.7000
     PHONON       :    39.88s CPU        42.83s WALL



     Representation #  1 mode #   1

     Self-consistent Calculation

      iter #   1 total cpu time :    43.2 secs   av.it.:   4.0
      thresh= 1.000E-02 alpha_mix =  0.700 |ddv_scf|^2 =  2.054E-05

      iter #   2 total cpu time :    43.5 secs   av.it.:   5.7
      thresh= 4.532E-04 alpha_mix =  0.700 |ddv_scf|^2 =  4.712E-06

      iter #   3 total cpu time :    43.8 secs   av.it.:   5.4
      thresh= 2.171E-04 alpha_mix =  0.700 |ddv_scf|^2 =  4.646E-09

      iter #   4 total cpu time :    44.2 secs   av.it.:   5.8
[...]
     celldm(4)=   0.000000  celldm(5)=   0.000000  celldm(6)=   0.000000

     crystal axes: (cart. coord. in units of alat)
               a(1) = (  -0.500000   0.000000   0.500000 )  
               a(2) = (   0.000000   0.500000   0.500000 )  
               a(3) = (  -0.500000   0.500000   0.000000 )  

     reciprocal axes: (cart. coord. in units 2 pi/alat)
               b(1) = ( -1.000000 -1.000000  1.000000 )  
               b(2) = (  1.000000  1.000000  1.000000 )  
               b(3) = ( -1.000000  1.000000 -1.000000 )  


     PseudoPot. # 1 for Al read from file:
     /home/nvarini/espresso_hdf5/espresso/pseudo/Al.pz-vbc.UPF
     MD5 check sum: 614279c88ff8d45c90147292d03ed420
     Pseudo is Norm-conserving, Zval =  3.0
     Generated by new atomic code, or converted to UPF format
     Using radial grid of  171 points,  2 beta functions with: 
                l(1) =   0
                l(2) =   1

     atomic species   valence    mass     pseudopotential
        Al             3.00    26.98000     Al( 1.00)

     48 Sym. Ops., with inversion, found



   Cartesian axes

     site n.     atom                  positions (alat units)
         1           Al  tau(   1) = (   0.0000000   0.0000000   0.0000000  )

     number of k points=   240  Methfessel-Paxton smearing, width (Ry)=  0.0500

     Number of k-points >= 100: set verbosity='high' to print them.

     Dense  grid:      869 G-vectors     FFT dimensions: (  15,  15,  15)

     Estimated max dynamical RAM per process >       0.22Mb

     Estimated total allocated dynamical RAM >       0.43Mb

     The potential is recalculated from file :
     /home/nvarini/espresso_hdf5/espresso/tempdir/_ph0/aluminum.save/charge-density.hdf5

     Starting wfc are    4 atomic +    2 random wfc

     Band Structure Calculation
     Davidson diagonalization with overlap

     ethr =  3.33E-10,  avg # of iterations = 13.7

     total cpu time spent up to now is       33.1 secs

     End of band structure calculation

     Number of k-points >= 100: set verbosity='high' to print the bands.

     the Fermi energy is     8.1818 ev

     Writing output data file aluminum.save

                                                                                

     bravais-lattice index     =            2
     lattice parameter (alat)  =       7.5000  a.u.
     unit-cell volume          =     105.4688 (a.u.)^3
     number of atoms/cell      =            1
     number of atomic types    =            1
     kinetic-energy cut-off    =      15.0000  Ry
     charge density cut-off    =      60.0000  Ry
     convergence threshold     =      1.0E-10
     beta                      =       0.7000
     number of iterations used =            4
     Exchange-correlation      =  SLA  PZ   NOGX NOGC ( 1  1  0  0 0 0)


     celldm(1)=    7.50000  celldm(2)=    0.00000  celldm(3)=    0.00000
     celldm(4)=    0.00000  celldm(5)=    0.00000  celldm(6)=    0.00000

     crystal axes: (cart. coord. in units of alat)
               a(1) = ( -0.5000  0.0000  0.5000 )  
               a(2) = (  0.0000  0.5000  0.5000 )  
               a(3) = ( -0.5000  0.5000  0.0000 )  

     reciprocal axes: (cart. coord. in units 2 pi/alat)
               b(1) = ( -1.0000 -1.0000  1.0000 )  
               b(2) = (  1.0000  1.0000  1.0000 )  
               b(3) = ( -1.0000  1.0000 -1.0000 )  


     Atoms inside the unit cell: 

     Cartesian axes

     site n.  atom      mass           positions (alat units)
        1     Al  26.9800   tau(    1) = (    0.00000    0.00000    0.00000  )

     Computing dynamical matrix for 
                    q = (   0.3750000   0.3750000   0.3750000 )
 
      6 Sym.Ops. (no q -> -q+G )


     G cutoff =   85.4897  (    435 G-vectors)     FFT grid: ( 15, 15, 15)

     number of k points=   240  Methfessel-Paxton smearing, width (Ry)=  0.0500

     PseudoPot. # 1 for Al read from file:
     /home/nvarini/espresso_hdf5/espresso/pseudo/Al.pz-vbc.UPF
     MD5 check sum: 614279c88ff8d45c90147292d03ed420
     Pseudo is Norm-conserving, Zval =  3.0
     Generated by new atomic code, or converted to UPF format
     Using radial grid of  171 points,  2 beta functions with: 
                l(1) =   0
                l(2) =   1

     Mode symmetry, C_3v (3m)   point group:


     Atomic displacements:
     There are   2 irreducible representations

     Representation     1      1 modes -A_1  L_1  To be done

     Representation     2      2 modes -E    L_3  To be done



     Alpha used in Ewald sum =   0.7000
     PHONON       :  1m11.62s CPU     1m16.89s WALL



     Representation #  1 mode #   1

     Self-consistent Calculation

      iter #   1 total cpu time :    77.2 secs   av.it.:   4.3
      thresh= 1.000E-02 alpha_mix =  0.700 |ddv_scf|^2 =  1.293E-03

      iter #   2 total cpu time :    77.4 secs   av.it.:   5.3
      thresh= 3.596E-03 alpha_mix =  0.700 |ddv_scf|^2 =  8.381E-03

      iter #   3 total cpu time :    77.6 secs   av.it.:   4.1
      thresh= 9.155E-03 alpha_mix =  0.700 |ddv_scf|^2 =  1.111E-06

      iter #   4 total cpu time :    77.9 secs   av.it.:   5.8
      thresh= 1.054E-04 alpha_mix =  0.700 |ddv_scf|^2 =  7.756E-09

      iter #   5 total cpu time :    78.1 secs   av.it.:   5.6
      thresh= 8.807E-06 alpha_mix =  0.700 |ddv_scf|^2 =  2.296E-10

      iter #   6 total cpu time :    78.3 secs   av.it.:   5.3
      thresh= 1.515E-06 alpha_mix =  0.700 |ddv_scf|^2 =  1.088E-11

     End of self-consistent calculation

     Convergence has been achieved 


     Representation #  2 modes #   2  3

     Self-consistent Calculation

      iter #   1 total cpu time :    78.7 secs   av.it.:   3.5
      thresh= 1.000E-02 alpha_mix =  0.700 |ddv_scf|^2 =  3.504E-08

      iter #   2 total cpu time :    79.2 secs   av.it.:   6.2
      thresh= 1.872E-05 alpha_mix =  0.700 |ddv_scf|^2 =  3.112E-09

      iter #   3 total cpu time :    79.6 secs   av.it.:   5.9
      thresh= 5.578E-06 alpha_mix =  0.700 |ddv_scf|^2 =  1.596E-11

     End of self-consistent calculation

     Convergence has been achieved 
 
     Number of q in the star =    8
     List of q in the star:
          1   0.375000000   0.375000000   0.375000000
          2  -0.375000000   0.375000000  -0.375000000
          3   0.375000000  -0.375000000  -0.375000000
          4   0.375000000  -0.375000000   0.375000000
          5  -0.375000000   0.375000000   0.375000000
          6  -0.375000000  -0.375000000  -0.375000000
          7  -0.375000000  -0.375000000   0.375000000
          8   0.375000000   0.375000000  -0.375000000

     Diagonalizing the dynamical matrix

     q = (    0.375000000   0.375000000   0.375000000 ) 

 **************************************************************************
     freq (    1) =       4.382444 [THz] =     146.182600 [cm-1]
     freq (    2) =       4.382444 [THz] =     146.182600 [cm-1]
     freq (    3) =       8.633879 [THz] =     287.995218 [cm-1]
 **************************************************************************

     Mode symmetry, C_3v (3m)   point group:

     freq (  1 -  2) =        146.2  [cm-1]   --> E    L_3           
     freq (  3 -  3) =        288.0  [cm-1]   --> A_1  L_1           

     Calculation of q =    0.5000000   0.5000000   0.5000000
 
     Parallelization info
     --------------------
     sticks:   dense  smooth     PW     G-vecs:    dense   smooth      PW
     Min          60      60     30                  434      434     153
     Max          61      61     31                  435      435     154
     Sum         121     121     61                  869      869     307
 


     bravais-lattice index     =            2
     lattice parameter (alat)  =       7.5000  a.u.
     unit-cell volume          =     105.4688 (a.u.)^3
     number of atoms/cell      =            1
     number of atomic types    =            1
     number of electrons       =         3.00
     number of Kohn-Sham states=            6
     kinetic-energy cutoff     =      15.0000  Ry
     charge density cutoff     =      60.0000  Ry
     Exchange-correlation      =  SLA  PZ   NOGX NOGC ( 1  1  0  0 0 0)

     celldm(1)=   7.500000  celldm(2)=   0.000000  celldm(3)=   0.000000
     celldm(4)=   0.000000  celldm(5)=   0.000000  celldm(6)=   0.000000

     crystal axes: (cart. coord. in units of alat)
               a(1) = (  -0.500000   0.000000   0.500000 )  
               a(2) = (   0.000000   0.500000   0.500000 )  
               a(3) = (  -0.500000   0.500000   0.000000 )  

     reciprocal axes: (cart. coord. in units 2 pi/alat)
               b(1) = ( -1.000000 -1.000000  1.000000 )  
               b(2) = (  1.000000  1.000000  1.000000 )  
               b(3) = ( -1.000000  1.000000 -1.000000 )  


     PseudoPot. # 1 for Al read from file:
     /home/nvarini/espresso_hdf5/espresso/pseudo/Al.pz-vbc.UPF
     MD5 check sum: 614279c88ff8d45c90147292d03ed420
     Pseudo is Norm-conserving, Zval =  3.0
     Generated by new atomic code, or converted to UPF format
     Using radial grid of  171 points,  2 beta functions with: 
                l(1) =   0
                l(2) =   1

     atomic species   valence    mass     pseudopotential
        Al             3.00    26.98000     Al( 1.00)

     48 Sym. Ops., with inversion, found



   Cartesian axes

     site n.     atom                  positions (alat units)
         1           Al  tau(   1) = (   0.0000000   0.0000000   0.0000000  )

     number of k points=   130  Methfessel-Paxton smearing, width (Ry)=  0.0500

     Number of k-points >= 100: set verbosity='high' to print them.

     Dense  grid:      869 G-vectors     FFT dimensions: (  15,  15,  15)

     Estimated max dynamical RAM per process >       0.22Mb

     Estimated total allocated dynamical RAM >       0.43Mb

     The potential is recalculated from file :
     /home/nvarini/espresso_hdf5/espresso/tempdir/_ph0/aluminum.save/charge-density.hdf5

     Starting wfc are    4 atomic +    2 random wfc

     Band Structure Calculation
     Davidson diagonalization with overlap

     ethr =  3.33E-10,  avg # of iterations = 13.9

     total cpu time spent up to now is       34.6 secs

     End of band structure calculation

     Number of k-points >= 100: set verbosity='high' to print the bands.

     the Fermi energy is     8.1818 ev

     Writing output data file aluminum.save

                                                                                

     bravais-lattice index     =            2
     lattice parameter (alat)  =       7.5000  a.u.
     unit-cell volume          =     105.4688 (a.u.)^3
     number of atoms/cell      =            1
     number of atomic types    =            1
     kinetic-energy cut-off    =      15.0000  Ry
     charge density cut-off    =      60.0000  Ry
     convergence threshold     =      1.0E-10
     beta                      =       0.7000
     number of iterations used =            4
     Exchange-correlation      =  SLA  PZ   NOGX NOGC ( 1  1  0  0 0 0)


     celldm(1)=    7.50000  celldm(2)=    0.00000  celldm(3)=    0.00000
     celldm(4)=    0.00000  celldm(5)=    0.00000  celldm(6)=    0.00000

     crystal axes: (cart. coord. in units of alat)
               a(1) = ( -0.5000  0.0000  0.5000 )  
               a(2) = (  0.0000  0.5000  0.5000 )  
               a(3) = ( -0.5000  0.5000  0.0000 )  

     reciprocal axes: (cart. coord. in units 2 pi/alat)
               b(1) = ( -1.0000 -1.0000  1.0000 )  
               b(2) = (  1.0000  1.0000  1.0000 )  
               b(3) = ( -1.0000  1.0000 -1.0000 )  


     Atoms inside the unit cell: 

     Cartesian axes

     site n.  atom      mass           positions (alat units)
        1     Al  26.9800   tau(    1) = (    0.00000    0.00000    0.00000  )

     Computing dynamical matrix for 
                    q = (   0.5000000   0.5000000   0.5000000 )
 
     13 Sym.Ops. (with q -> -q+G )


     G cutoff =   85.4897  (    435 G-vectors)     FFT grid: ( 15, 15, 15)

     number of k points=   130  Methfessel-Paxton smearing, width (Ry)=  0.0500

     PseudoPot. # 1 for Al read from file:
     /home/nvarini/espresso_hdf5/espresso/pseudo/Al.pz-vbc.UPF
     MD5 check sum: 614279c88ff8d45c90147292d03ed420
     Pseudo is Norm-conserving, Zval =  3.0
     Generated by new atomic code, or converted to UPF format
     Using radial grid of  171 points,  2 beta functions with: 
                l(1) =   0
                l(2) =   1

     Mode symmetry, D_3d (-3m)  point group:


     Atomic displacements:
     There are   2 irreducible representations

     Representation     1      1 modes -A_2u L_2'  To be done

     Representation     2      2 modes -E_u  L_3'  To be done



     Alpha used in Ewald sum =   0.7000
     PHONON       :  1m15.47s CPU     1m21.12s WALL



     Representation #  1 mode #   1

     Self-consistent Calculation

      iter #   1 total cpu time :    81.3 secs   av.it.:   4.4
      thresh= 1.000E-02 alpha_mix =  0.700 |ddv_scf|^2 =  2.437E-04

      iter #   2 total cpu time :    81.4 secs   av.it.:   5.6
      thresh= 1.561E-03 alpha_mix =  0.700 |ddv_scf|^2 =  2.931E-04

      iter #   3 total cpu time :    81.5 secs   av.it.:   5.1
      thresh= 1.712E-03 alpha_mix =  0.700 |ddv_scf|^2 =  6.123E-09

      iter #   4 total cpu time :    81.7 secs   av.it.:   5.6
      thresh= 7.825E-06 alpha_mix =  0.700 |ddv_scf|^2 =  2.985E-10

      iter #   5 total cpu time :    81.8 secs   av.it.:   5.0
      thresh= 1.728E-06 alpha_mix =  0.700 |ddv_scf|^2 =  9.757E-13

     End of self-consistent calculation

     Convergence has been achieved 


     Representation #  2 modes #   2  3

     Self-consistent Calculation

      iter #   1 total cpu time :    82.0 secs   av.it.:   3.4
      thresh= 1.000E-02 alpha_mix =  0.700 |ddv_scf|^2 =  3.599E-08

      iter #   2 total cpu time :    82.3 secs   av.it.:   6.1
      thresh= 1.897E-05 alpha_mix =  0.700 |ddv_scf|^2 =  3.149E-09

      iter #   3 total cpu time :    82.5 secs   av.it.:   5.7
      thresh= 5.611E-06 alpha_mix =  0.700 |ddv_scf|^2 =  1.776E-11

     End of self-consistent calculation

     Convergence has been achieved 
 
     Number of q in the star =    4
     List of q in the star:
          1   0.500000000   0.500000000   0.500000000
          2   0.500000000  -0.500000000  -0.500000000
          3   0.500000000  -0.500000000   0.500000000
          4  -0.500000000  -0.500000000   0.500000000

     Diagonalizing the dynamical matrix

     q = (    0.500000000   0.500000000   0.500000000 ) 

 **************************************************************************
     freq (    1) =       4.482981 [THz] =     149.536155 [cm-1]
     freq (    2) =       4.482981 [THz] =     149.536155 [cm-1]
     freq (    3) =       9.371087 [THz] =     312.585818 [cm-1]
 **************************************************************************

     Mode symmetry, D_3d (-3m)  point group:

     freq (  1 -  2) =        149.5  [cm-1]   --> E_u  L_3'          
     freq (  3 -  3) =        312.6  [cm-1]   --> A_2u L_2'          
 
     init_run     :      0.11s CPU      0.12s WALL (      16 calls)
     electrons    :     27.32s CPU     28.74s WALL (      16 calls)

     Called by init_run:
     wfcinit      :      0.00s CPU      0.00s WALL (      16 calls)
     potinit      :      0.02s CPU      0.02s WALL (      16 calls)

     Called by electrons:
     c_bands      :     27.26s CPU     28.68s WALL (      16 calls)
     v_of_rho     :      0.00s CPU      0.00s WALL (      17 calls)

     Called by c_bands:
     init_us_2    :      0.13s CPU      0.47s WALL (   30791 calls)
     cegterg      :     23.60s CPU     24.55s WALL (    3688 calls)

     Called by sum_band:

     Called by *egterg:
     h_psi        :     28.15s CPU     30.76s WALL (  182564 calls)
     g_psi        :      0.08s CPU      0.19s WALL (   47506 calls)
     cdiaghg      :      9.37s CPU      7.85s WALL (   51035 calls)

     Called by h_psi:
     h_psi:pot    :     27.79s CPU     30.34s WALL (  182564 calls)
     h_psi:calbec :      1.96s CPU      2.16s WALL (  182564 calls)
     add_vuspsi   :      0.73s CPU      0.83s WALL (  182564 calls)

     General routines
     calbec       :      2.72s CPU      3.10s WALL (  350239 calls)
     fft          :      0.02s CPU      0.03s WALL (     725 calls)
     ffts         :      0.12s CPU      0.21s WALL (    5639 calls)
     fftw         :     27.68s CPU     30.09s WALL ( 1111988 calls)
     davcio       :      0.62s CPU      1.36s WALL (   72880 calls)
 
     Parallel routines
     fft_scatter  :      7.28s CPU      8.24s WALL ( 1118352 calls)
 
     PHONON       :  1m16.80s CPU     1m22.53s WALL

     INITIALIZATION: 
     phq_setup    :      0.07s CPU      0.07s WALL (      17 calls)
     phq_init     :      1.91s CPU      2.02s WALL (      17 calls)
 
     phq_init     :      1.91s CPU      2.02s WALL (      17 calls)
     init_vloc    :      0.00s CPU      0.00s WALL (      17 calls)
     init_us_1    :      0.03s CPU      0.03s WALL (      17 calls)
 
     DYNAMICAL MATRIX:
     dynmat0      :      0.75s CPU      0.78s WALL (      17 calls)
     phqscf       :     40.94s CPU     44.27s WALL (      17 calls)
     dynmatrix    :      0.02s CPU      0.58s WALL (      17 calls)
 
     phqscf       :     40.94s CPU     44.27s WALL (      17 calls)
     solve_linter :     40.49s CPU     43.78s WALL (      37 calls)
     drhodv       :      0.37s CPU      0.41s WALL (      37 calls)
 
     dynmat0      :      0.75s CPU      0.78s WALL (      17 calls)
     dynmat_us    :      0.73s CPU      0.76s WALL (      17 calls)
     d2ionq       :      0.00s CPU      0.00s WALL (      17 calls)
 
     dynmat_us    :      0.73s CPU      0.76s WALL (      17 calls)
 
     phqscf       :     40.94s CPU     44.27s WALL (      17 calls)
     solve_linter :     40.49s CPU     43.78s WALL (      37 calls)
 
     solve_linter :     40.49s CPU     43.78s WALL (      37 calls)
     dvqpsi_us    :      2.15s CPU      2.38s WALL (    5424 calls)
     ortho        :      0.51s CPU      0.52s WALL (   22753 calls)
     cgsolve      :     19.36s CPU     20.65s WALL (   22753 calls)
     incdrhoscf   :      2.76s CPU      2.96s WALL (   22753 calls)
     vpsifft      :      1.75s CPU      2.17s WALL (   17329 calls)
     dv_of_drho   :      0.02s CPU      0.03s WALL (     207 calls)
     mix_pot      :      0.05s CPU      0.06s WALL (     160 calls)
     ef_shift     :      0.01s CPU      0.01s WALL (       8 calls)
     localdos     :      0.02s CPU      0.02s WALL (       2 calls)
     psymdvscf    :      0.38s CPU      0.38s WALL (     160 calls)
 
     dvqpsi_us    :      2.15s CPU      2.38s WALL (    5424 calls)
     dvqpsi_us_on :      0.14s CPU      0.14s WALL (    5424 calls)
 
     cgsolve      :     19.36s CPU     20.65s WALL (   22753 calls)
     ch_psi       :     17.55s CPU     18.83s WALL (  127841 calls)
 
     ch_psi       :     17.55s CPU     18.83s WALL (  127841 calls)
     last         :      2.11s CPU      2.29s WALL (  127841 calls)
 
     add_vuspsi   :      0.73s CPU      0.83s WALL (  182564 calls)
 
     incdrhoscf   :      2.76s CPU      2.96s WALL (   22753 calls)
 
 
      General routines
     calbec       :      2.72s CPU      3.10s WALL (  350239 calls)
     fft          :      0.02s CPU      0.03s WALL (     725 calls)
     ffts         :      0.12s CPU      0.21s WALL (    5639 calls)
     fftw         :     27.68s CPU     30.09s WALL ( 1111988 calls)
     davcio       :      0.62s CPU      1.36s WALL (   72880 calls)
     write_rec    :      0.30s CPU      0.32s WALL (     197 calls)
 
 
     PHONON       :  1m16.80s CPU     1m22.53s WALL

 
   This run was terminated on:  16:38:24  18Aug2016            

=------------------------------------------------------------------------------=
   JOB DONE.
=------------------------------------------------------------------------------=
