
     Program PWSCF v.5.4.0 (svn rev. 12782M) starts on 18Aug2016 at 16:10:20 

     This program is part of the open-source Quantum ESPRESSO suite
     for quantum simulation of materials; please cite
         "P. Giannozzi et al., J. Phys.:Condens. Matter 21 395502 (2009);
          URL http://www.quantum-espresso.org", 
     in publications or presentations arising from this work. More details at
     http://www.quantum-espresso.org/quote
 
           HOST :    x86_64-pc-linux-gnu
           ARCH :    x86_64
             CC :    icc
            CPP :    cpp
            F90 :    ifort
            F77 :    ifort
         DFLAGS :    -D__INTEL -D__FFTW -D__MPI -D__PARA -D__HDF5
      BLAS LIBS :    -lmkl_intel_lp64  -lmkl_sequential -lmkl_core
    LAPACK LIBS :    
       FFT LIBS :    
      MASS LIBS :    

     Parallel version (MPI), running on     2 processors
     R & G space division:  proc/nbgrp/npool/nimage =       2
     Waiting for input...
     Reading input from standard input
     Message from routine read_cards :
     DEPRECATED: no units specified in ATOMIC_POSITIONS card
     Message from routine read_cards :
     ATOMIC_POSITIONS: units set to alat

     Current dimensions of program PWSCF are:
     Max number of different atomic species (ntypx) = 10
     Max number of k-points (npk) =  40000
     Max angular momentum in pseudopotentials (lmaxx) =  3

     Subspace diagonalization in iterative solution of the eigenvalue problem:
     a serial algorithm will be used

     Message from routine setup:
     Dynamics, you should have no symmetries
 
     Parallelization info
     --------------------
     sticks:   dense  smooth     PW     G-vecs:    dense   smooth      PW
     Min          54      54     18                 3344     3344     694
     Max          55      55     19                 3345     3345     717
     Sum         109     109     37                 6689     6689    1411
 


     bravais-lattice index     =            6
     lattice parameter (alat)  =       5.3033  a.u.
     unit-cell volume          =    1193.2421 (a.u.)^3
     number of atoms/cell      =            7
     number of atomic types    =            1
     number of electrons       =        21.00
     number of Kohn-Sham states=           15
     kinetic-energy cutoff     =      12.0000  Ry
     charge density cutoff     =      48.0000  Ry
     convergence threshold     =      1.0E-07
     mixing beta               =       0.3000
     number of iterations used =            8  plain     mixing
     Exchange-correlation      =  SLA  PZ   NOGX NOGC ( 1  1  0  0 0 0)
     nstep                     =           50


     celldm(1)=   5.303300  celldm(2)=   0.000000  celldm(3)=   8.000000
     celldm(4)=   0.000000  celldm(5)=   0.000000  celldm(6)=   0.000000

     crystal axes: (cart. coord. in units of alat)
               a(1) = (   1.000000   0.000000   0.000000 )  
               a(2) = (   0.000000   1.000000   0.000000 )  
               a(3) = (   0.000000   0.000000   8.000000 )  

     reciprocal axes: (cart. coord. in units 2 pi/alat)
               b(1) = (  1.000000  0.000000  0.000000 )  
               b(2) = (  0.000000  1.000000  0.000000 )  
               b(3) = (  0.000000  0.000000  0.125000 )  


     PseudoPot. # 1 for Al read from file:
     /home/nvarini/espresso_hdf5/espresso/pseudo/Al.pz-vbc.UPF
     MD5 check sum: 614279c88ff8d45c90147292d03ed420
     Pseudo is Norm-conserving, Zval =  3.0
     Generated by new atomic code, or converted to UPF format
     Using radial grid of  171 points,  2 beta functions with: 
                l(1) =   0
                l(2) =   1

     atomic species   valence    mass     pseudopotential
        Al             3.00     1.00000     Al( 1.00)

     16 Sym. Ops., with inversion, found



   Cartesian axes

     site n.     atom                  positions (alat units)
         1           Al  tau(   1) = (   0.5000000   0.5000000  -2.1213200  )
         2           Al  tau(   2) = (   0.0000000   0.0000000  -1.4142130  )
         3           Al  tau(   3) = (   0.5000000   0.5000000  -0.7071070  )
         4           Al  tau(   4) = (   0.0000000   0.0000000   0.0000000  )
         5           Al  tau(   5) = (   0.5000000   0.5000000   0.7071070  )
         6           Al  tau(   6) = (   0.0000000   0.0000000   1.4142130  )
         7           Al  tau(   7) = (   0.5000000   0.5000000   2.1213200  )

     number of k points=     3  Methfessel-Paxton smearing, width (Ry)=  0.0500
                       cart. coord. in units 2pi/alat
        k(    1) = (   0.1250000   0.1250000   0.0000000), wk =   0.5000000
        k(    2) = (   0.1250000   0.3750000   0.0000000), wk =   1.0000000
        k(    3) = (   0.3750000   0.3750000   0.0000000), wk =   0.5000000

     Dense  grid:     6689 G-vectors     FFT dimensions: (  12,  12,  96)

     Estimated max dynamical RAM per process >       2.88Mb

     Estimated total allocated dynamical RAM >       5.75Mb

     Initial potential from superposition of free atoms
     Check: negative starting charge=   -0.000275

     starting charge   20.98560, renormalised to   21.00000

     negative rho (up, down):  2.756E-04 0.000E+00
     Starting wfc are   28 randomized atomic wfcs

     total cpu time spent up to now is        0.1 secs

     per-process dynamical memory:     3.7 Mb

     Self-consistent Calculation

     iteration #  1     ecut=    12.00 Ry     beta=0.30
     Davidson diagonalization with overlap
     ethr =  1.00E-02,  avg # of iterations =  3.0

     negative rho (up, down):  1.864E-04 0.000E+00

     total cpu time spent up to now is        0.1 secs

     total energy              =     -28.85186853 Ry
     Harris-Foulkes estimate   =     -29.29341597 Ry
     estimated scf accuracy    <       0.92944249 Ry

     iteration #  2     ecut=    12.00 Ry     beta=0.30
     Davidson diagonalization with overlap
     ethr =  4.43E-03,  avg # of iterations =  4.3

     total cpu time spent up to now is        0.2 secs

     total energy              =     -27.67824996 Ry
     Harris-Foulkes estimate   =     -30.53567447 Ry
     estimated scf accuracy    <      39.17352044 Ry

     iteration #  3     ecut=    12.00 Ry     beta=0.30
     Davidson diagonalization with overlap
     ethr =  4.43E-03,  avg # of iterations =  4.7

     total cpu time spent up to now is        0.2 secs

     total energy              =     -29.21379232 Ry
     Harris-Foulkes estimate   =     -29.23665048 Ry
     estimated scf accuracy    <       0.23865699 Ry

     iteration #  4     ecut=    12.00 Ry     beta=0.30
     Davidson diagonalization with overlap
     ethr =  1.14E-03,  avg # of iterations =  1.3

     total cpu time spent up to now is        0.3 secs

     total energy              =     -29.21562203 Ry
     Harris-Foulkes estimate   =     -29.22398983 Ry
     estimated scf accuracy    <       0.04601647 Ry

     iteration #  5     ecut=    12.00 Ry     beta=0.30
     Davidson diagonalization with overlap
     ethr =  2.19E-04,  avg # of iterations =  3.0

     total cpu time spent up to now is        0.3 secs

     total energy              =     -29.21943665 Ry
     Harris-Foulkes estimate   =     -29.22030785 Ry
     estimated scf accuracy    <       0.00647088 Ry

     iteration #  6     ecut=    12.00 Ry     beta=0.30
     Davidson diagonalization with overlap
     ethr =  3.08E-05,  avg # of iterations =  2.3

     total cpu time spent up to now is        0.4 secs

     total energy              =     -29.21991275 Ry
     Harris-Foulkes estimate   =     -29.21994456 Ry
     estimated scf accuracy    <       0.00083461 Ry

     iteration #  7     ecut=    12.00 Ry     beta=0.30
     Davidson diagonalization with overlap
     ethr =  3.97E-06,  avg # of iterations =  3.0

     total cpu time spent up to now is        0.4 secs

     total energy              =     -29.21995494 Ry
     Harris-Foulkes estimate   =     -29.21996739 Ry
     estimated scf accuracy    <       0.00008381 Ry

     iteration #  8     ecut=    12.00 Ry     beta=0.30
     Davidson diagonalization with overlap
     ethr =  3.99E-07,  avg # of iterations =  2.7

     total cpu time spent up to now is        0.4 secs

     total energy              =     -29.21995611 Ry
     Harris-Foulkes estimate   =     -29.21996144 Ry
     estimated scf accuracy    <       0.00003464 Ry

     iteration #  9     ecut=    12.00 Ry     beta=0.30
     Davidson diagonalization with overlap
     ethr =  1.65E-07,  avg # of iterations =  3.0

     total cpu time spent up to now is        0.5 secs

     total energy              =     -29.21995914 Ry
     Harris-Foulkes estimate   =     -29.21996166 Ry
     estimated scf accuracy    <       0.00002324 Ry

     iteration # 10     ecut=    12.00 Ry     beta=0.30
     Davidson diagonalization with overlap
     ethr =  1.11E-07,  avg # of iterations =  1.3

     total cpu time spent up to now is        0.5 secs

     total energy              =     -29.21996044 Ry
     Harris-Foulkes estimate   =     -29.21996041 Ry
     estimated scf accuracy    <       0.00000016 Ry

     iteration # 11     ecut=    12.00 Ry     beta=0.30
     Davidson diagonalization with overlap
     ethr =  7.72E-10,  avg # of iterations =  3.7

     total cpu time spent up to now is        0.6 secs

     total energy              =     -29.21996048 Ry
     Harris-Foulkes estimate   =     -29.21996051 Ry
     estimated scf accuracy    <       0.00000030 Ry

     iteration # 12     ecut=    12.00 Ry     beta=0.30
     Davidson diagonalization with overlap
     ethr =  7.72E-10,  avg # of iterations =  2.0

     total cpu time spent up to now is        0.6 secs

     End of self-consistent calculation

          k = 0.1250 0.1250 0.0000 (   822 PWs)   bands (ev):

    -7.0791  -6.5550  -5.7173  -4.5662  -3.1470  -1.4537   0.5132   1.7887
     4.3699   5.5243   5.9955   6.2186   6.7548   7.2259   7.5004

          k = 0.1250 0.3750 0.0000 (   847 PWs)   bands (ev):

    -4.7556  -4.2390  -3.4159  -2.2856  -0.8945  -0.2551   0.2239   0.8006
     1.0424   2.1353   2.7204   3.5258   3.8936   5.1678   6.5174

          k = 0.3750 0.3750 0.0000 (   860 PWs)   bands (ev):

    -2.4880  -1.9831  -1.1750  -0.0656   1.2963   1.3316   1.7994   2.5505
     2.7201   2.8086   3.4482   3.5988   4.1262   4.9122   4.9359

     the Fermi energy is     3.4733 ev

!    total energy              =     -29.21996042 Ry
     Harris-Foulkes estimate   =     -29.21996051 Ry
     estimated scf accuracy    <       0.00000009 Ry

     convergence has been achieved in  12 iterations

     Forces acting on atoms (Ry/au):

     atom    1 type  1   force =     0.00000000    0.00000000    0.01013583
     atom    2 type  1   force =     0.00000000    0.00000000   -0.00112021
     atom    3 type  1   force =     0.00000000    0.00000000    0.00256097
     atom    4 type  1   force =     0.00000000    0.00000000    0.00000000
     atom    5 type  1   force =     0.00000000    0.00000000   -0.00256097
     atom    6 type  1   force =     0.00000000    0.00000000    0.00112021
     atom    7 type  1   force =     0.00000000    0.00000000   -0.01013583

     Total force =     0.014869     Total SCF correction =     0.000543

     Damped Dynamics Calculation

     Entering Dynamics:    iteration =     1

ATOMIC_POSITIONS (alat)
Al       0.500000000   0.500000000  -2.119432767
Al       0.000000000   0.000000000  -1.414421577
Al       0.500000000   0.500000000  -0.706630162
Al       0.000000000   0.000000000   0.000000000
Al       0.500000000   0.500000000   0.706630162
Al       0.000000000   0.000000000   1.414421577
Al       0.500000000   0.500000000   2.119432767



     Writing output data file Al.save
     Check: negative starting charge=   -0.000275
     NEW-OLD atomic charge density approx. for the potential
     Check: negative starting charge=   -0.000280

     negative rho (up, down):  1.705E-06 0.000E+00

     total cpu time spent up to now is        0.7 secs

     per-process dynamical memory:     4.4 Mb

     Self-consistent Calculation

     iteration #  1     ecut=    12.00 Ry     beta=0.30
     Davidson diagonalization with overlap
     ethr =  1.00E-06,  avg # of iterations =  2.7

     negative rho (up, down):  2.741E-07 0.000E+00

     total cpu time spent up to now is        0.7 secs

     total energy              =     -29.22013904 Ry
     Harris-Foulkes estimate   =     -29.22017555 Ry
     estimated scf accuracy    <       0.00007538 Ry

     iteration #  2     ecut=    12.00 Ry     beta=0.30
     Davidson diagonalization with overlap
     ethr =  3.59E-07,  avg # of iterations =  3.3

     negative rho (up, down):  2.251E-07 0.000E+00

     total cpu time spent up to now is        0.8 secs

     total energy              =     -29.22006256 Ry
     Harris-Foulkes estimate   =     -29.22028059 Ry
     estimated scf accuracy    <       0.00284190 Ry

     iteration #  3     ecut=    12.00 Ry     beta=0.30
     Davidson diagonalization with overlap
     ethr =  3.59E-07,  avg # of iterations =  3.0

     negative rho (up, down):  2.059E-08 0.000E+00

     total cpu time spent up to now is        0.8 secs

     total energy              =     -29.22017043 Ry
     Harris-Foulkes estimate   =     -29.22017095 Ry
     estimated scf accuracy    <       0.00000232 Ry

     iteration #  4     ecut=    12.00 Ry     beta=0.30
     Davidson diagonalization with overlap
     ethr =  1.10E-08,  avg # of iterations =  2.3

     total cpu time spent up to now is        0.8 secs

     total energy              =     -29.22017069 Ry
     Harris-Foulkes estimate   =     -29.22017090 Ry
     estimated scf accuracy    <       0.00000111 Ry

     iteration #  5     ecut=    12.00 Ry     beta=0.30
     Davidson diagonalization with overlap
     ethr =  5.26E-09,  avg # of iterations =  1.7

     total cpu time spent up to now is        0.9 secs

     total energy              =     -29.22017083 Ry
     Harris-Foulkes estimate   =     -29.22017080 Ry
     estimated scf accuracy    <       0.00000010 Ry

     iteration #  6     ecut=    12.00 Ry     beta=0.30
     Davidson diagonalization with overlap
     ethr =  4.83E-10,  avg # of iterations =  2.0

     total cpu time spent up to now is        0.9 secs

     End of self-consistent calculation

          k = 0.1250 0.1250 0.0000 (   822 PWs)   bands (ev):

    -7.0837  -6.5611  -5.7283  -4.5716  -3.1454  -1.4514   0.5172   1.7927
     4.3755   5.5196   5.9889   6.2244   6.7420   7.2243   7.5029

          k = 0.1250 0.3750 0.0000 (   847 PWs)   bands (ev):

    -4.7602  -4.2451  -3.4270  -2.2911  -0.8932  -0.2598   0.2178   0.8027
     1.0311   2.1294   2.7241   3.5271   3.8968   5.1705   6.5228

          k = 0.3750 0.3750 0.0000 (   860 PWs)   bands (ev):

    -2.4926  -1.9891  -1.1862  -0.0714   1.2973   1.3269   1.7930   2.5382
     2.7154   2.8077   3.4451   3.5921   4.1163   4.9140   4.9393

     the Fermi energy is     3.4724 ev

!    total energy              =     -29.22017085 Ry
     Harris-Foulkes estimate   =     -29.22017085 Ry
     estimated scf accuracy    <       0.00000001 Ry

     convergence has been achieved in   6 iterations

     Forces acting on atoms (Ry/au):

     atom    1 type  1   force =     0.00000000    0.00000000    0.00948988
     atom    2 type  1   force =     0.00000000    0.00000000   -0.00040395
     atom    3 type  1   force =     0.00000000    0.00000000    0.00223409
     atom    4 type  1   force =     0.00000000    0.00000000    0.00000000
     atom    5 type  1   force =     0.00000000    0.00000000   -0.00223409
     atom    6 type  1   force =     0.00000000    0.00000000    0.00040395
     atom    7 type  1   force =     0.00000000    0.00000000   -0.00948988

     Total force =     0.013799     Total SCF correction =     0.000102

     Entering Dynamics:    iteration =     2

     <vel(dt)|acc(dt)> =   0.99792225

ATOMIC_POSITIONS (alat)
Al       0.500000000   0.500000000  -2.092628439
Al       0.000000000   0.000000000  -1.415638964
Al       0.500000000   0.500000000  -0.700300534
Al       0.000000000   0.000000000   0.000000000
Al       0.500000000   0.500000000   0.700300534
Al       0.000000000   0.000000000   1.415638964
Al       0.500000000   0.500000000   2.092628439



     Writing output data file Al.save

     first order wave-functions extrapolation
     Check: negative starting charge=   -0.000280
     NEW-OLD atomic charge density approx. for the potential
     Check: negative starting charge=   -0.000282

     negative rho (up, down):  3.624E-04 0.000E+00

     total cpu time spent up to now is        1.0 secs

     per-process dynamical memory:     4.4 Mb

     Self-consistent Calculation

     iteration #  1     ecut=    12.00 Ry     beta=0.30
     Davidson diagonalization with overlap
     ethr =  1.00E-06,  avg # of iterations =  7.3

     negative rho (up, down):  2.048E-04 0.000E+00

     total cpu time spent up to now is        1.1 secs

     total energy              =     -29.22103121 Ry
     Harris-Foulkes estimate   =     -29.22204535 Ry
     estimated scf accuracy    <       0.00254388 Ry

     iteration #  2     ecut=    12.00 Ry     beta=0.30
     Davidson diagonalization with overlap
     ethr =  1.21E-05,  avg # of iterations =  3.3

     negative rho (up, down):  1.576E-04 0.000E+00

     total cpu time spent up to now is        1.1 secs

     total energy              =     -29.22100152 Ry
     Harris-Foulkes estimate   =     -29.22166093 Ry
     estimated scf accuracy    <       0.00255598 Ry

     iteration #  3     ecut=    12.00 Ry     beta=0.30
     Davidson diagonalization with overlap
     ethr =  1.21E-05,  avg # of iterations =  2.7

     negative rho (up, down):  1.237E-04 0.000E+00

     total cpu time spent up to now is        1.2 secs

     total energy              =     -29.22087264 Ry
     Harris-Foulkes estimate   =     -29.22202999 Ry
     estimated scf accuracy    <       0.01373507 Ry

     iteration #  4     ecut=    12.00 Ry     beta=0.30
     Davidson diagonalization with overlap
     ethr =  1.21E-05,  avg # of iterations =  2.7

     negative rho (up, down):  7.447E-05 0.000E+00

     total cpu time spent up to now is        1.2 secs

     total energy              =     -29.22146352 Ry
     Harris-Foulkes estimate   =     -29.22151828 Ry
     estimated scf accuracy    <       0.00037385 Ry

     iteration #  5     ecut=    12.00 Ry     beta=0.30
     Davidson diagonalization with overlap
     ethr =  1.78E-06,  avg # of iterations =  2.0

     negative rho (up, down):  9.825E-06 0.000E+00

     total cpu time spent up to now is        1.2 secs

     total energy              =     -29.22149388 Ry
     Harris-Foulkes estimate   =     -29.22149199 Ry
     estimated scf accuracy    <       0.00002304 Ry

     iteration #  6     ecut=    12.00 Ry     beta=0.30
     Davidson diagonalization with overlap
     ethr =  1.10E-07,  avg # of iterations =  2.3

     negative rho (up, down):  2.764E-08 0.000E+00

     total cpu time spent up to now is        1.3 secs

     total energy              =     -29.22149749 Ry
     Harris-Foulkes estimate   =     -29.22149644 Ry
     estimated scf accuracy    <       0.00000241 Ry

     iteration #  7     ecut=    12.00 Ry     beta=0.30
     Davidson diagonalization with overlap
     ethr =  1.15E-08,  avg # of iterations =  2.0

     total cpu time spent up to now is        1.3 secs

     total energy              =     -29.22149787 Ry
     Harris-Foulkes estimate   =     -29.22149779 Ry
     estimated scf accuracy    <       0.00000056 Ry

     iteration #  8     ecut=    12.00 Ry     beta=0.30
     Davidson diagonalization with overlap
     ethr =  2.66E-09,  avg # of iterations =  1.3

     total cpu time spent up to now is        1.4 secs

     End of self-consistent calculation

          k = 0.1250 0.1250 0.0000 (   822 PWs)   bands (ev):

    -7.1596  -6.6613  -5.8809  -4.6455  -3.1301  -1.4224   0.5725   1.8512
     4.4532   5.4392   5.8762   6.2949   6.5636   7.1826   7.5282

          k = 0.1250 0.3750 0.0000 (   847 PWs)   bands (ev):

    -4.8360  -4.3455  -3.5805  -2.3673  -0.8820  -0.3367   0.1148   0.8288
     0.8749   2.0480   2.7754   3.5383   3.9433   5.2036   6.5962

          k = 0.3750 0.3750 0.0000 (   860 PWs)   bands (ev):

    -2.5689  -2.0909  -1.3426  -0.1508   1.2482   1.3036   1.6845   2.3665
     2.6377   2.7793   3.3985   3.5008   3.9787   4.9325   4.9885

     the Fermi energy is     3.4544 ev

!    total energy              =     -29.22149790 Ry
     Harris-Foulkes estimate   =     -29.22149791 Ry
     estimated scf accuracy    <       0.00000003 Ry

     convergence has been achieved in   8 iterations

     Forces acting on atoms (Ry/au):

     atom    1 type  1   force =     0.00000000    0.00000000   -0.00023202
     atom    2 type  1   force =     0.00000000    0.00000000    0.00974641
     atom    3 type  1   force =     0.00000000    0.00000000   -0.00166929
     atom    4 type  1   force =     0.00000000    0.00000000    0.00000000
     atom    5 type  1   force =     0.00000000    0.00000000    0.00166929
     atom    6 type  1   force =     0.00000000    0.00000000   -0.00974641
     atom    7 type  1   force =     0.00000000    0.00000000    0.00023202

     Total force =     0.013988     Total SCF correction =     0.000226

     Entering Dynamics:    iteration =     3

     <vel(dt)|acc(dt)> =  -0.60722015

ATOMIC_POSITIONS (alat)
Al       0.500000000   0.500000000  -2.093670081
Al       0.000000000   0.000000000  -1.414040093
Al       0.500000000   0.500000000  -0.700796176
Al       0.000000000   0.000000000   0.000000000
Al       0.500000000   0.500000000   0.700796176
Al       0.000000000   0.000000000   1.414040093
Al       0.500000000   0.500000000   2.093670081



     Writing output data file Al.save

     second order wave-functions extrapolation
     Check: negative starting charge=   -0.000282
     NEW-OLD atomic charge density approx. for the potential
     Check: negative starting charge=   -0.000284

     negative rho (up, down):  1.251E-06 0.000E+00

     total cpu time spent up to now is        1.4 secs

     per-process dynamical memory:     4.9 Mb

     Self-consistent Calculation

     iteration #  1     ecut=    12.00 Ry     beta=0.30
     Davidson diagonalization with overlap
     ethr =  1.00E-06,  avg # of iterations =  2.7

     negative rho (up, down):  5.442E-07 0.000E+00

     total cpu time spent up to now is        1.5 secs

     total energy              =     -29.22164979 Ry
     Harris-Foulkes estimate   =     -29.22166254 Ry
     estimated scf accuracy    <       0.00003040 Ry

     iteration #  2     ecut=    12.00 Ry     beta=0.30
     Davidson diagonalization with overlap
     ethr =  1.45E-07,  avg # of iterations =  2.7

     negative rho (up, down):  4.585E-07 0.000E+00

     total cpu time spent up to now is        1.5 secs

     total energy              =     -29.22164202 Ry
     Harris-Foulkes estimate   =     -29.22166179 Ry
     estimated scf accuracy    <       0.00015180 Ry

     iteration #  3     ecut=    12.00 Ry     beta=0.30
     Davidson diagonalization with overlap
     ethr =  1.45E-07,  avg # of iterations =  2.3

     negative rho (up, down):  2.001E-07 0.000E+00

     total cpu time spent up to now is        1.5 secs

     total energy              =     -29.22165263 Ry
     Harris-Foulkes estimate   =     -29.22165897 Ry
     estimated scf accuracy    <       0.00008021 Ry

     iteration #  4     ecut=    12.00 Ry     beta=0.30
     Davidson diagonalization with overlap
     ethr =  1.45E-07,  avg # of iterations =  2.0

     negative rho (up, down):  5.019E-08 0.000E+00

     total cpu time spent up to now is        1.6 secs

     total energy              =     -29.22165568 Ry
     Harris-Foulkes estimate   =     -29.22165572 Ry
     estimated scf accuracy    <       0.00000029 Ry

     iteration #  5     ecut=    12.00 Ry     beta=0.30
     Davidson diagonalization with overlap
     ethr =  1.38E-09,  avg # of iterations =  2.3

     negative rho (up, down):  1.222E-08 0.000E+00

     total cpu time spent up to now is        1.6 secs

     total energy              =     -29.22165572 Ry
     Harris-Foulkes estimate   =     -29.22165573 Ry
     estimated scf accuracy    <       0.00000015 Ry

     iteration #  6     ecut=    12.00 Ry     beta=0.30
     Davidson diagonalization with overlap
     ethr =  6.94E-10,  avg # of iterations =  1.3

     total cpu time spent up to now is        1.7 secs

     End of self-consistent calculation

          k = 0.1250 0.1250 0.0000 (   822 PWs)   bands (ev):

    -7.1591  -6.6584  -5.8680  -4.6407  -3.1344  -1.4241   0.5699   1.8481
     4.4518   5.4399   5.8803   6.2930   6.5792   7.1822   7.5286

          k = 0.1250 0.3750 0.0000 (   847 PWs)   bands (ev):

    -4.8355  -4.3426  -3.5676  -2.3625  -0.8862  -0.3361   0.1180   0.8273
     0.8881   2.0532   2.7726   3.5344   3.9412   5.2013   6.5949

          k = 0.3750 0.3750 0.0000 (   860 PWs)   bands (ev):

    -2.5684  -2.0879  -1.3295  -0.1457   1.2489   1.2996   1.6882   2.3813
     2.6382   2.7796   3.3994   3.5067   3.9901   4.9262   4.9861

     the Fermi energy is     3.4544 ev

!    total energy              =     -29.22165574 Ry
     Harris-Foulkes estimate   =     -29.22165573 Ry
     estimated scf accuracy    <       0.00000001 Ry

     convergence has been achieved in   6 iterations

     Forces acting on atoms (Ry/au):

     atom    1 type  1   force =     0.00000000    0.00000000    0.00070629
     atom    2 type  1   force =     0.00000000    0.00000000    0.00834414
     atom    3 type  1   force =     0.00000000    0.00000000   -0.00104033
     atom    4 type  1   force =     0.00000000    0.00000000    0.00000000
     atom    5 type  1   force =     0.00000000    0.00000000    0.00104033
     atom    6 type  1   force =     0.00000000    0.00000000   -0.00834414
     atom    7 type  1   force =     0.00000000    0.00000000   -0.00070629

     Total force =     0.011934     Total SCF correction =     0.000045

     Entering Dynamics:    iteration =     4

     <vel(dt)|acc(dt)> =   0.59292882

ATOMIC_POSITIONS (alat)
Al       0.500000000   0.500000000  -2.088930318
Al       0.000000000   0.000000000  -1.401138222
Al       0.500000000   0.500000000  -0.701613055
Al       0.000000000   0.000000000   0.000000000
Al       0.500000000   0.500000000   0.701613055
Al       0.000000000   0.000000000   1.401138222
Al       0.500000000   0.500000000   2.088930318



     Writing output data file Al.save

     second order wave-functions extrapolation
     Check: negative starting charge=   -0.000284
     NEW-OLD atomic charge density approx. for the potential
     Check: negative starting charge=   -0.000289

     negative rho (up, down):  3.881E-05 0.000E+00

     total cpu time spent up to now is        1.7 secs

     per-process dynamical memory:     4.9 Mb

     Self-consistent Calculation

     iteration #  1     ecut=    12.00 Ry     beta=0.30
     Davidson diagonalization with overlap
     ethr =  1.00E-06,  avg # of iterations =  4.0

     negative rho (up, down):  2.083E-05 0.000E+00

     total cpu time spent up to now is        1.8 secs

     total energy              =     -29.22144528 Ry
     Harris-Foulkes estimate   =     -29.22271088 Ry
     estimated scf accuracy    <       0.00266335 Ry

     iteration #  2     ecut=    12.00 Ry     beta=0.30
     Davidson diagonalization with overlap
     ethr =  1.27E-05,  avg # of iterations =  3.3

     negative rho (up, down):  1.915E-05 0.000E+00

     total cpu time spent up to now is        1.8 secs

     total energy              =     -29.21933554 Ry
     Harris-Foulkes estimate   =     -29.22529595 Ry
     estimated scf accuracy    <       0.07176032 Ry

     iteration #  3     ecut=    12.00 Ry     beta=0.30
     Davidson diagonalization with overlap
     ethr =  1.27E-05,  avg # of iterations =  3.0

     negative rho (up, down):  1.295E-05 0.000E+00

     total cpu time spent up to now is        1.9 secs

     total energy              =     -29.22238046 Ry
     Harris-Foulkes estimate   =     -29.22250887 Ry
     estimated scf accuracy    <       0.00080901 Ry

     iteration #  4     ecut=    12.00 Ry     beta=0.30
     Davidson diagonalization with overlap
     ethr =  3.85E-06,  avg # of iterations =  1.3

     negative rho (up, down):  5.673E-06 0.000E+00

     total cpu time spent up to now is        1.9 secs

     total energy              =     -29.22244839 Ry
     Harris-Foulkes estimate   =     -29.22245375 Ry
     estimated scf accuracy    <       0.00003328 Ry

     iteration #  5     ecut=    12.00 Ry     beta=0.30
     Davidson diagonalization with overlap
     ethr =  1.58E-07,  avg # of iterations =  2.0

     negative rho (up, down):  4.908E-07 0.000E+00

     total cpu time spent up to now is        2.0 secs

     total energy              =     -29.22245390 Ry
     Harris-Foulkes estimate   =     -29.22245300 Ry
     estimated scf accuracy    <       0.00000488 Ry

     iteration #  6     ecut=    12.00 Ry     beta=0.30
     Davidson diagonalization with overlap
     ethr =  2.33E-08,  avg # of iterations =  2.0

     negative rho (up, down):  2.918E-08 0.000E+00

     total cpu time spent up to now is        2.0 secs

     total energy              =     -29.22245428 Ry
     Harris-Foulkes estimate   =     -29.22245450 Ry
     estimated scf accuracy    <       0.00000129 Ry

     iteration #  7     ecut=    12.00 Ry     beta=0.30
     Davidson diagonalization with overlap
     ethr =  6.13E-09,  avg # of iterations =  2.3

     total cpu time spent up to now is        2.0 secs

     total energy              =     -29.22245449 Ry
     Harris-Foulkes estimate   =     -29.22245467 Ry
     estimated scf accuracy    <       0.00000101 Ry

     iteration #  8     ecut=    12.00 Ry     beta=0.30
     Davidson diagonalization with overlap
     ethr =  4.82E-09,  avg # of iterations =  1.3

     total cpu time spent up to now is        2.1 secs

     End of self-consistent calculation

          k = 0.1250 0.1250 0.0000 (   822 PWs)   bands (ev):

    -7.1955  -6.6884  -5.8357  -4.6338  -3.1603  -1.4226   0.5774   1.8553
     4.4794   5.4021   5.8498   6.3079   6.6191   7.1538   7.5477

          k = 0.1250 0.3750 0.0000 (   847 PWs)   bands (ev):

    -4.8718  -4.3726  -3.5357  -2.3560  -0.9128  -0.3724   0.0875   0.8287
     0.9212   2.0602   2.7765   3.5107   3.9509   5.1988   6.6206

          k = 0.3750 0.3750 0.0000 (   860 PWs)   bands (ev):

    -2.6050  -2.1184  -1.2973  -0.1395   1.2118   1.2720   1.6580   2.4185
     2.6010   2.7626   3.3866   3.5149   4.0167   4.8860   4.9929

     the Fermi energy is     3.4466 ev

!    total energy              =     -29.22245459 Ry
     Harris-Foulkes estimate   =     -29.22245459 Ry
     estimated scf accuracy    <          7.2E-09 Ry

     convergence has been achieved in   8 iterations

     Forces acting on atoms (Ry/au):

     atom    1 type  1   force =     0.00000000    0.00000000    0.00303133
     atom    2 type  1   force =     0.00000000    0.00000000    0.00195456
     atom    3 type  1   force =     0.00000000    0.00000000    0.00244827
     atom    4 type  1   force =     0.00000000    0.00000000    0.00000000
     atom    5 type  1   force =     0.00000000    0.00000000   -0.00244827
     atom    6 type  1   force =     0.00000000    0.00000000   -0.00195456
     atom    7 type  1   force =     0.00000000    0.00000000   -0.00303133

     Total force =     0.006165     Total SCF correction =     0.000069

     Entering Dynamics:    iteration =     5

     <vel(dt)|acc(dt)> =   0.88783461

ATOMIC_POSITIONS (alat)
Al       0.500000000   0.500000000  -2.069096480
Al       0.000000000   0.000000000  -1.382080461
Al       0.500000000   0.500000000  -0.699007351
Al       0.000000000   0.000000000   0.000000000
Al       0.500000000   0.500000000   0.699007351
Al       0.000000000   0.000000000   1.382080461
Al       0.500000000   0.500000000   2.069096480



     Writing output data file Al.save

     second order wave-functions extrapolation
     Check: negative starting charge=   -0.000289
     NEW-OLD atomic charge density approx. for the potential
     Check: negative starting charge=   -0.000296

     negative rho (up, down):  2.570E-04 0.000E+00

     total cpu time spent up to now is        2.1 secs

     per-process dynamical memory:     4.9 Mb

     Self-consistent Calculation

     iteration #  1     ecut=    12.00 Ry     beta=0.30
     Davidson diagonalization with overlap
     ethr =  1.00E-06,  avg # of iterations =  4.3

     negative rho (up, down):  1.465E-04 0.000E+00

     total cpu time spent up to now is        2.2 secs

     total energy              =     -29.22078015 Ry
     Harris-Foulkes estimate   =     -29.22330581 Ry
     estimated scf accuracy    <       0.00533011 Ry

     iteration #  2     ecut=    12.00 Ry     beta=0.30
     Davidson diagonalization with overlap
     ethr =  2.54E-05,  avg # of iterations =  3.3

     negative rho (up, down):  1.361E-04 0.000E+00

     total cpu time spent up to now is        2.2 secs

     total energy              =     -29.21647256 Ry
     Harris-Foulkes estimate   =     -29.22888994 Ry
     estimated scf accuracy    <       0.14707012 Ry

     iteration #  3     ecut=    12.00 Ry     beta=0.30
     Davidson diagonalization with overlap
     ethr =  2.54E-05,  avg # of iterations =  3.0

     negative rho (up, down):  1.043E-04 0.000E+00

     total cpu time spent up to now is        2.3 secs

     total energy              =     -29.22278392 Ry
     Harris-Foulkes estimate   =     -29.22306352 Ry
     estimated scf accuracy    <       0.00180847 Ry

     iteration #  4     ecut=    12.00 Ry     beta=0.30
     Davidson diagonalization with overlap
     ethr =  8.61E-06,  avg # of iterations =  1.3

     negative rho (up, down):  3.529E-05 0.000E+00

     total cpu time spent up to now is        2.3 secs

     total energy              =     -29.22292729 Ry
     Harris-Foulkes estimate   =     -29.22292117 Ry
     estimated scf accuracy    <       0.00004879 Ry

     iteration #  5     ecut=    12.00 Ry     beta=0.30
     Davidson diagonalization with overlap
     ethr =  2.32E-07,  avg # of iterations =  3.3

     negative rho (up, down):  5.030E-08 0.000E+00

     total cpu time spent up to now is        2.4 secs

     total energy              =     -29.22293627 Ry
     Harris-Foulkes estimate   =     -29.22293396 Ry
     estimated scf accuracy    <       0.00001674 Ry

     iteration #  6     ecut=    12.00 Ry     beta=0.30
     Davidson diagonalization with overlap
     ethr =  7.97E-08,  avg # of iterations =  2.0

     negative rho (up, down):  4.143E-08 0.000E+00

     total cpu time spent up to now is        2.4 secs

     total energy              =     -29.22293827 Ry
     Harris-Foulkes estimate   =     -29.22293899 Ry
     estimated scf accuracy    <       0.00000812 Ry

     iteration #  7     ecut=    12.00 Ry     beta=0.30
     Davidson diagonalization with overlap
     ethr =  3.86E-08,  avg # of iterations =  1.0

     total cpu time spent up to now is        2.4 secs

     total energy              =     -29.22293804 Ry
     Harris-Foulkes estimate   =     -29.22293847 Ry
     estimated scf accuracy    <       0.00000242 Ry

     iteration #  8     ecut=    12.00 Ry     beta=0.30
     Davidson diagonalization with overlap
     ethr =  1.15E-08,  avg # of iterations =  2.7

     total cpu time spent up to now is        2.5 secs

     total energy              =     -29.22293858 Ry
     Harris-Foulkes estimate   =     -29.22293860 Ry
     estimated scf accuracy    <       0.00000110 Ry

     iteration #  9     ecut=    12.00 Ry     beta=0.30
     Davidson diagonalization with overlap
     ethr =  5.24E-09,  avg # of iterations =  1.0

     total cpu time spent up to now is        2.5 secs

     total energy              =     -29.22293844 Ry
     Harris-Foulkes estimate   =     -29.22293859 Ry
     estimated scf accuracy    <       0.00000096 Ry

     iteration # 10     ecut=    12.00 Ry     beta=0.30
     Davidson diagonalization with overlap
     ethr =  4.56E-09,  avg # of iterations =  1.3

     total cpu time spent up to now is        2.5 secs

     End of self-consistent calculation

          k = 0.1250 0.1250 0.0000 (   822 PWs)   bands (ev):

    -7.2932  -6.7858  -5.8630  -4.6586  -3.1899  -1.4078   0.6137   1.8957
     4.5552   5.2984   5.7437   6.3525   6.5903   7.0828   7.5912

          k = 0.1250 0.3750 0.0000 (   847 PWs)   bands (ev):

    -4.9694  -4.4703  -3.5640  -2.3826  -0.9463  -0.4708  -0.0122   0.8421
     0.8934   2.0321   2.8050   3.4831   3.9886   5.2094   6.6908

          k = 0.3750 0.3750 0.0000 (   860 PWs)   bands (ev):

    -2.7033  -2.2176  -1.3268  -0.1681   1.1107   1.2345   1.5547   2.3889
     2.5011   2.7099   3.3538   3.4841   3.9878   4.8363   5.0256

     the Fermi energy is     3.4277 ev

!    total energy              =     -29.22293847 Ry
     Harris-Foulkes estimate   =     -29.22293850 Ry
     estimated scf accuracy    <       0.00000004 Ry

     convergence has been achieved in  10 iterations

     Forces acting on atoms (Ry/au):

     atom    1 type  1   force =     0.00000000    0.00000000    0.00159877
     atom    2 type  1   force =     0.00000000    0.00000000   -0.00334861
     atom    3 type  1   force =     0.00000000    0.00000000    0.00614180
     atom    4 type  1   force =     0.00000000    0.00000000    0.00000000
     atom    5 type  1   force =     0.00000000    0.00000000   -0.00614180
     atom    6 type  1   force =     0.00000000    0.00000000    0.00334861
     atom    7 type  1   force =     0.00000000    0.00000000   -0.00159877

     Total force =     0.010148     Total SCF correction =     0.000310

     Entering Dynamics:    iteration =     6

     <vel(dt)|acc(dt)> =  -0.00483179

ATOMIC_POSITIONS (alat)
Al       0.500000000   0.500000000  -2.066981565
Al       0.000000000   0.000000000  -1.384527268
Al       0.500000000   0.500000000  -0.697394993
Al       0.000000000   0.000000000   0.000000000
Al       0.500000000   0.500000000   0.697394993
Al       0.000000000   0.000000000   1.384527268
Al       0.500000000   0.500000000   2.066981565



     Writing output data file Al.save

     second order wave-functions extrapolation
     Check: negative starting charge=   -0.000296
     NEW-OLD atomic charge density approx. for the potential
     Check: negative starting charge=   -0.000297

     negative rho (up, down):  5.351E-06 0.000E+00

     total cpu time spent up to now is        2.6 secs

     per-process dynamical memory:     4.9 Mb

     Self-consistent Calculation

     iteration #  1     ecut=    12.00 Ry     beta=0.30
     Davidson diagonalization with overlap
     ethr =  1.00E-06,  avg # of iterations =  2.3

     negative rho (up, down):  1.975E-06 0.000E+00

     total cpu time spent up to now is        2.7 secs

     total energy              =     -29.22308029 Ry
     Harris-Foulkes estimate   =     -29.22312458 Ry
     estimated scf accuracy    <       0.00010539 Ry

     iteration #  2     ecut=    12.00 Ry     beta=0.30
     Davidson diagonalization with overlap
     ethr =  5.02E-07,  avg # of iterations =  2.0

     negative rho (up, down):  1.216E-06 0.000E+00

     total cpu time spent up to now is        2.7 secs

     total energy              =     -29.22307418 Ry
     Harris-Foulkes estimate   =     -29.22310551 Ry
     estimated scf accuracy    <       0.00012763 Ry

     iteration #  3     ecut=    12.00 Ry     beta=0.30
     Davidson diagonalization with overlap
     ethr =  5.02E-07,  avg # of iterations =  2.0

     negative rho (up, down):  6.118E-07 0.000E+00

     total cpu time spent up to now is        2.7 secs

     total energy              =     -29.22307237 Ry
     Harris-Foulkes estimate   =     -29.22312143 Ry
     estimated scf accuracy    <       0.00056777 Ry

     iteration #  4     ecut=    12.00 Ry     beta=0.30
     Davidson diagonalization with overlap
     ethr =  5.02E-07,  avg # of iterations =  2.0

     negative rho (up, down):  1.751E-07 0.000E+00

     total cpu time spent up to now is        2.8 secs

     total energy              =     -29.22309719 Ry
     Harris-Foulkes estimate   =     -29.22309895 Ry
     estimated scf accuracy    <       0.00000976 Ry

     iteration #  5     ecut=    12.00 Ry     beta=0.30
     Davidson diagonalization with overlap
     ethr =  4.65E-08,  avg # of iterations =  1.3

     negative rho (up, down):  3.915E-08 0.000E+00

     total cpu time spent up to now is        2.8 secs

     total energy              =     -29.22309800 Ry
     Harris-Foulkes estimate   =     -29.22309802 Ry
     estimated scf accuracy    <       0.00000051 Ry

     iteration #  6     ecut=    12.00 Ry     beta=0.30
     Davidson diagonalization with overlap
     ethr =  2.42E-09,  avg # of iterations =  2.3

     total cpu time spent up to now is        2.8 secs

     total energy              =     -29.22309807 Ry
     Harris-Foulkes estimate   =     -29.22309810 Ry
     estimated scf accuracy    <       0.00000016 Ry

     iteration #  7     ecut=    12.00 Ry     beta=0.30
     Davidson diagonalization with overlap
     ethr =  7.51E-10,  avg # of iterations =  2.3

     total cpu time spent up to now is        2.9 secs

     total energy              =     -29.22309809 Ry
     Harris-Foulkes estimate   =     -29.22309812 Ry
     estimated scf accuracy    <       0.00000014 Ry

     iteration #  8     ecut=    12.00 Ry     beta=0.30
     Davidson diagonalization with overlap
     ethr =  6.85E-10,  avg # of iterations =  1.7

     total cpu time spent up to now is        2.9 secs

     End of self-consistent calculation

          k = 0.1250 0.1250 0.0000 (   822 PWs)   bands (ev):

    -7.2960  -6.7876  -5.8879  -4.6698  -3.1831  -1.4059   0.6184   1.9004
     4.5596   5.2958   5.7420   6.3570   6.5609   7.0814   7.5914

          k = 0.1250 0.3750 0.0000 (   847 PWs)   bands (ev):

    -4.9721  -4.4721  -3.5888  -2.3939  -0.9401  -0.4734  -0.0141   0.8437
     0.8681   2.0200   2.8102   3.4887   3.9913   5.2123   6.6951

          k = 0.3750 0.3750 0.0000 (   860 PWs)   bands (ev):

    -2.7061  -2.2192  -1.3520  -0.1798   1.1081   1.2402   1.5531   2.3609
     2.4983   2.7096   3.3536   3.4702   3.9661   4.8465   5.0301

     the Fermi energy is     3.4269 ev

!    total energy              =     -29.22309811 Ry
     Harris-Foulkes estimate   =     -29.22309811 Ry
     estimated scf accuracy    <          4.7E-09 Ry

     convergence has been achieved in   8 iterations

     Forces acting on atoms (Ry/au):

     atom    1 type  1   force =     0.00000000    0.00000000    0.00005817
     atom    2 type  1   force =     0.00000000    0.00000000   -0.00058875
     atom    3 type  1   force =     0.00000000    0.00000000    0.00437176
     atom    4 type  1   force =     0.00000000    0.00000000    0.00000000
     atom    5 type  1   force =     0.00000000    0.00000000   -0.00437176
     atom    6 type  1   force =     0.00000000    0.00000000    0.00058875
     atom    7 type  1   force =     0.00000000    0.00000000   -0.00005817

     Total force =     0.006239     Total SCF correction =     0.000103

     Entering Dynamics:    iteration =     7

     <vel(dt)|acc(dt)> =   0.66033634

ATOMIC_POSITIONS (alat)
Al       0.500000000   0.500000000  -2.061282617
Al       0.000000000   0.000000000  -1.383845498
Al       0.500000000   0.500000000  -0.693855970
Al       0.000000000   0.000000000   0.000000000
Al       0.500000000   0.500000000   0.693855970
Al       0.000000000   0.000000000   1.383845498
Al       0.500000000   0.500000000   2.061282617



     Writing output data file Al.save

     second order wave-functions extrapolation
     Check: negative starting charge=   -0.000297
     NEW-OLD atomic charge density approx. for the potential
     Check: negative starting charge=   -0.000299

     negative rho (up, down):  2.955E-05 0.000E+00

     total cpu time spent up to now is        3.0 secs

     per-process dynamical memory:     4.9 Mb

     Self-consistent Calculation

     iteration #  1     ecut=    12.00 Ry     beta=0.30
     Davidson diagonalization with overlap
     ethr =  1.00E-06,  avg # of iterations =  2.3

     negative rho (up, down):  1.577E-05 0.000E+00

     total cpu time spent up to now is        3.0 secs

     total energy              =     -29.22312468 Ry
     Harris-Foulkes estimate   =     -29.22320188 Ry
     estimated scf accuracy    <       0.00018307 Ry

     iteration #  2     ecut=    12.00 Ry     beta=0.30
     Davidson diagonalization with overlap
     ethr =  8.72E-07,  avg # of iterations =  3.3

     negative rho (up, down):  1.439E-05 0.000E+00

     total cpu time spent up to now is        3.1 secs

     total energy              =     -29.22302993 Ry
     Harris-Foulkes estimate   =     -29.22328569 Ry
     estimated scf accuracy    <       0.00278302 Ry

     iteration #  3     ecut=    12.00 Ry     beta=0.30
     Davidson diagonalization with overlap
     ethr =  8.72E-07,  avg # of iterations =  3.0

     negative rho (up, down):  6.499E-06 0.000E+00

     total cpu time spent up to now is        3.1 secs

     total energy              =     -29.22316760 Ry
     Harris-Foulkes estimate   =     -29.22317578 Ry
     estimated scf accuracy    <       0.00008289 Ry

     iteration #  4     ecut=    12.00 Ry     beta=0.30
     Davidson diagonalization with overlap
     ethr =  3.95E-07,  avg # of iterations =  1.3

     negative rho (up, down):  2.973E-06 0.000E+00

     total cpu time spent up to now is        3.1 secs

     total energy              =     -29.22317095 Ry
     Harris-Foulkes estimate   =     -29.22317206 Ry
     estimated scf accuracy    <       0.00000584 Ry

     iteration #  5     ecut=    12.00 Ry     beta=0.30
     Davidson diagonalization with overlap
     ethr =  2.78E-08,  avg # of iterations =  2.0

     negative rho (up, down):  3.499E-08 0.000E+00

     total cpu time spent up to now is        3.2 secs

     total energy              =     -29.22317185 Ry
     Harris-Foulkes estimate   =     -29.22317173 Ry
     estimated scf accuracy    <       0.00000128 Ry

     iteration #  6     ecut=    12.00 Ry     beta=0.30
     Davidson diagonalization with overlap
     ethr =  6.08E-09,  avg # of iterations =  1.3

     total cpu time spent up to now is        3.2 secs

     total energy              =     -29.22317203 Ry
     Harris-Foulkes estimate   =     -29.22317195 Ry
     estimated scf accuracy    <       0.00000010 Ry

     iteration #  7     ecut=    12.00 Ry     beta=0.30
     Davidson diagonalization with overlap
     ethr =  4.84E-10,  avg # of iterations =  2.3

     total cpu time spent up to now is        3.3 secs

     End of self-consistent calculation

          k = 0.1250 0.1250 0.0000 (   822 PWs)   bands (ev):

    -7.3186  -6.8018  -5.9228  -4.6868  -3.1783  -1.4024   0.6295   1.9126
     4.5779   5.2722   5.7266   6.3692   6.5199   7.0648   7.6002

          k = 0.1250 0.3750 0.0000 (   847 PWs)   bands (ev):

    -4.9947  -4.4864  -3.6239  -2.4115  -0.9370  -0.4957  -0.0288   0.8325
     0.8468   2.0016   2.8210   3.4926   4.0004   5.2161   6.7125

          k = 0.3750 0.3750 0.0000 (   860 PWs)   bands (ev):

    -2.7288  -2.2336  -1.3877  -0.1980   1.0849   1.2422   1.5381   2.3215
     2.4756   2.7010   3.3504   3.4489   3.9349   4.8531   5.0407

     the Fermi energy is     3.4237 ev

!    total energy              =     -29.22317201 Ry
     Harris-Foulkes estimate   =     -29.22317206 Ry
     estimated scf accuracy    <       0.00000006 Ry

     convergence has been achieved in   7 iterations

     Forces acting on atoms (Ry/au):

     atom    1 type  1   force =     0.00000000    0.00000000   -0.00192527
     atom    2 type  1   force =     0.00000000    0.00000000    0.00180649
     atom    3 type  1   force =     0.00000000    0.00000000    0.00229809
     atom    4 type  1   force =     0.00000000    0.00000000    0.00000000
     atom    5 type  1   force =     0.00000000    0.00000000   -0.00229809
     atom    6 type  1   force =     0.00000000    0.00000000   -0.00180649
     atom    7 type  1   force =     0.00000000    0.00000000    0.00192527

     Total force =     0.004950     Total SCF correction =     0.000315

     Entering Dynamics:    iteration =     8

     <vel(dt)|acc(dt)> =  -0.23569123

ATOMIC_POSITIONS (alat)
Al       0.500000000   0.500000000  -2.062008590
Al       0.000000000   0.000000000  -1.383285950
Al       0.500000000   0.500000000  -0.693280682
Al       0.000000000   0.000000000   0.000000000
Al       0.500000000   0.500000000   0.693280682
Al       0.000000000   0.000000000   1.383285950
Al       0.500000000   0.500000000   2.062008590



     Writing output data file Al.save

     second order wave-functions extrapolation
     Check: negative starting charge=   -0.000299
     NEW-OLD atomic charge density approx. for the potential
     Check: negative starting charge=   -0.000298

     negative rho (up, down):  8.561E-08 0.000E+00

     total cpu time spent up to now is        3.3 secs

     per-process dynamical memory:     4.9 Mb

     Self-consistent Calculation

     iteration #  1     ecut=    12.00 Ry     beta=0.30
     Davidson diagonalization with overlap
     ethr =  1.00E-06,  avg # of iterations =  2.0

     Threshold (ethr) on eigenvalues was too large:
     Diagonalizing with lowered threshold

     Davidson diagonalization with overlap
     ethr =  4.81E-08,  avg # of iterations =  2.0

     total cpu time spent up to now is        3.4 secs

     total energy              =     -29.22320222 Ry
     Harris-Foulkes estimate   =     -29.22320840 Ry
     estimated scf accuracy    <       0.00001292 Ry

     iteration #  2     ecut=    12.00 Ry     beta=0.30
     Davidson diagonalization with overlap
     ethr =  6.15E-08,  avg # of iterations =  3.0

     total cpu time spent up to now is        3.4 secs

     total energy              =     -29.22319091 Ry
     Harris-Foulkes estimate   =     -29.22322351 Ry
     estimated scf accuracy    <       0.00039252 Ry

     iteration #  3     ecut=    12.00 Ry     beta=0.30
     Davidson diagonalization with overlap
     ethr =  6.15E-08,  avg # of iterations =  2.7

     total cpu time spent up to now is        3.5 secs

     total energy              =     -29.22320731 Ry
     Harris-Foulkes estimate   =     -29.22320756 Ry
     estimated scf accuracy    <       0.00000147 Ry

     iteration #  4     ecut=    12.00 Ry     beta=0.30
     Davidson diagonalization with overlap
     ethr =  7.01E-09,  avg # of iterations =  2.0

     total cpu time spent up to now is        3.5 secs

     total energy              =     -29.22320747 Ry
     Harris-Foulkes estimate   =     -29.22320748 Ry
     estimated scf accuracy    <       0.00000016 Ry

     iteration #  5     ecut=    12.00 Ry     beta=0.30
     Davidson diagonalization with overlap
     ethr =  7.50E-10,  avg # of iterations =  1.7

     total cpu time spent up to now is        3.6 secs

     End of self-consistent calculation

          k = 0.1250 0.1250 0.0000 (   822 PWs)   bands (ev):

    -7.3195  -6.7973  -5.9189  -4.6851  -3.1786  -1.4044   0.6273   1.9103
     4.5765   5.2714   5.7318   6.3683   6.5246   7.0631   7.6005

          k = 0.1250 0.3750 0.0000 (   847 PWs)   bands (ev):

    -4.9955  -4.4819  -3.6200  -2.4097  -0.9374  -0.4963  -0.0241   0.8365
     0.8449   2.0036   2.8191   3.4922   3.9983   5.2138   6.7112

          k = 0.3750 0.3750 0.0000 (   860 PWs)   bands (ev):

    -2.7297  -2.2291  -1.3837  -0.1962   1.0841   1.2420   1.5430   2.3260
     2.4750   2.7027   3.3512   3.4512   3.9383   4.8530   5.0388

     the Fermi energy is     3.4240 ev

!    total energy              =     -29.22320749 Ry
     Harris-Foulkes estimate   =     -29.22320748 Ry
     estimated scf accuracy    <       0.00000003 Ry

     convergence has been achieved in   5 iterations

     Forces acting on atoms (Ry/au):

     atom    1 type  1   force =     0.00000000    0.00000000   -0.00142778
     atom    2 type  1   force =     0.00000000    0.00000000    0.00135204
     atom    3 type  1   force =     0.00000000    0.00000000    0.00205393
     atom    4 type  1   force =     0.00000000    0.00000000    0.00000000
     atom    5 type  1   force =     0.00000000    0.00000000   -0.00205393
     atom    6 type  1   force =     0.00000000    0.00000000   -0.00135204
     atom    7 type  1   force =     0.00000000    0.00000000    0.00142778

     Total force =     0.004021     Total SCF correction =     0.000049

     Entering Dynamics:    iteration =     9

     <vel(dt)|acc(dt)> =   0.79131235

ATOMIC_POSITIONS (alat)
Al       0.500000000   0.500000000  -2.062526544
Al       0.000000000   0.000000000  -1.379049239
Al       0.500000000   0.500000000  -0.688368504
Al       0.000000000   0.000000000   0.000000000
Al       0.500000000   0.500000000   0.688368504
Al       0.000000000   0.000000000   1.379049239
Al       0.500000000   0.500000000   2.062526544



     Writing output data file Al.save

     second order wave-functions extrapolation
     Check: negative starting charge=   -0.000298
     NEW-OLD atomic charge density approx. for the potential
     Check: negative starting charge=   -0.000292

     negative rho (up, down):  2.986E-06 0.000E+00

     total cpu time spent up to now is        3.6 secs

     per-process dynamical memory:     5.5 Mb

     Self-consistent Calculation

     iteration #  1     ecut=    12.00 Ry     beta=0.30
     Davidson diagonalization with overlap
     ethr =  1.00E-06,  avg # of iterations =  3.3

     negative rho (up, down):  1.134E-06 0.000E+00

     total cpu time spent up to now is        3.7 secs

     total energy              =     -29.22292095 Ry
     Harris-Foulkes estimate   =     -29.22333995 Ry
     estimated scf accuracy    <       0.00085603 Ry

     iteration #  2     ecut=    12.00 Ry     beta=0.30
     Davidson diagonalization with overlap
     ethr =  4.08E-06,  avg # of iterations =  3.7

     negative rho (up, down):  9.986E-07 0.000E+00

     total cpu time spent up to now is        3.7 secs

     total energy              =     -29.22217047 Ry
     Harris-Foulkes estimate   =     -29.22436523 Ry
     estimated scf accuracy    <       0.02616443 Ry

     iteration #  3     ecut=    12.00 Ry     beta=0.30
     Davidson diagonalization with overlap
     ethr =  4.08E-06,  avg # of iterations =  3.0

     negative rho (up, down):  5.988E-07 0.000E+00

     total cpu time spent up to now is        3.8 secs

     total energy              =     -29.22327218 Ry
     Harris-Foulkes estimate   =     -29.22330137 Ry
     estimated scf accuracy    <       0.00016882 Ry

     iteration #  4     ecut=    12.00 Ry     beta=0.30
     Davidson diagonalization with overlap
     ethr =  8.04E-07,  avg # of iterations =  1.3

     negative rho (up, down):  1.593E-08 0.000E+00

     total cpu time spent up to now is        3.8 secs

     total energy              =     -29.22328679 Ry
     Harris-Foulkes estimate   =     -29.22328649 Ry
     estimated scf accuracy    <       0.00000337 Ry

     iteration #  5     ecut=    12.00 Ry     beta=0.30
     Davidson diagonalization with overlap
     ethr =  1.60E-08,  avg # of iterations =  2.7

     total cpu time spent up to now is        3.8 secs

     total energy              =     -29.22328740 Ry
     Harris-Foulkes estimate   =     -29.22328735 Ry
     estimated scf accuracy    <       0.00000095 Ry

     iteration #  6     ecut=    12.00 Ry     beta=0.30
     Davidson diagonalization with overlap
     ethr =  4.52E-09,  avg # of iterations =  1.7

     total cpu time spent up to now is        3.9 secs

     total energy              =     -29.22328749 Ry
     Harris-Foulkes estimate   =     -29.22328751 Ry
     estimated scf accuracy    <       0.00000020 Ry

     iteration #  7     ecut=    12.00 Ry     beta=0.30
     Davidson diagonalization with overlap
     ethr =  9.35E-10,  avg # of iterations =  1.3

     total cpu time spent up to now is        3.9 secs

     End of self-consistent calculation

          k = 0.1250 0.1250 0.0000 (   822 PWs)   bands (ev):

    -7.3377  -6.7802  -5.9114  -4.6818  -3.1773  -1.4105   0.6239   1.9073
     4.5818   5.2519   5.7513   6.3719   6.5336   7.0436   7.6111

          k = 0.1250 0.3750 0.0000 (   847 PWs)   bands (ev):

    -5.0138  -4.4649  -3.6126  -2.4064  -0.9376  -0.5131  -0.0069   0.8390
     0.8442   2.0079   2.8169   3.4931   3.9952   5.2053   6.7166

          k = 0.3750 0.3750 0.0000 (   860 PWs)   bands (ev):

    -2.7481  -2.2119  -1.3761  -0.1929   1.0652   1.2423   1.5616   2.3346
     2.4581   2.7082   3.3559   3.4557   3.9447   4.8557   5.0372

     the Fermi energy is     3.4262 ev

!    total energy              =     -29.22328750 Ry
     Harris-Foulkes estimate   =     -29.22328750 Ry
     estimated scf accuracy    <       0.00000001 Ry

     convergence has been achieved in   7 iterations

     Forces acting on atoms (Ry/au):

     atom    1 type  1   force =     0.00000000    0.00000000    0.00018077
     atom    2 type  1   force =     0.00000000    0.00000000   -0.00023872
     atom    3 type  1   force =     0.00000000    0.00000000   -0.00009288
     atom    4 type  1   force =     0.00000000    0.00000000    0.00000000
     atom    5 type  1   force =     0.00000000    0.00000000    0.00009288
     atom    6 type  1   force =     0.00000000    0.00000000    0.00023872
     atom    7 type  1   force =     0.00000000    0.00000000   -0.00018077

     Total force =     0.000443     Total SCF correction =     0.000117
     SCF correction compared to forces is large: reduce conv_thr to get better values

     Damped Dynamics: convergence achieved in   9 steps

     End of damped dynamics calculation

     Final energy =     -29.2232875019 Ry

Begin final coordinates
     new unit-cell volume =   1193.24211 a.u.^3 (   176.82024 Ang^3 )

CELL_PARAMETERS (alat=  5.30330000)
   1.000000000   0.000000000   0.000000000
   0.000000000   1.000000000   0.000000000
   0.000000000   0.000000000   8.000000000

ATOMIC_POSITIONS (alat)
Al       0.500000000   0.500000000  -2.062526544
Al       0.000000000   0.000000000  -1.379049239
Al       0.500000000   0.500000000  -0.688368504
Al       0.000000000   0.000000000   0.000000000
Al       0.500000000   0.500000000   0.688368504
Al       0.000000000   0.000000000   1.379049239
Al       0.500000000   0.500000000   2.062526544
End final coordinates



     Writing output data file Al.save
 
     init_run     :      0.04s CPU      0.04s WALL (       1 calls)
     electrons    :      3.27s CPU      3.35s WALL (      10 calls)
     update_pot   :      0.08s CPU      0.09s WALL (       9 calls)
     forces       :      0.06s CPU      0.06s WALL (      10 calls)

     Called by init_run:
     wfcinit      :      0.02s CPU      0.02s WALL (       1 calls)
     potinit      :      0.00s CPU      0.00s WALL (       1 calls)

     Called by electrons:
     c_bands      :      2.66s CPU      2.74s WALL (      78 calls)
     sum_band     :      0.44s CPU      0.45s WALL (      78 calls)
     v_of_rho     :      0.06s CPU      0.06s WALL (      87 calls)
     mix_rho      :      0.05s CPU      0.05s WALL (      78 calls)

     Called by c_bands:
     init_us_2    :      0.07s CPU      0.06s WALL (     501 calls)
     cegterg      :      2.55s CPU      2.62s WALL (     234 calls)

     Called by sum_band:

     Called by *egterg:
     h_psi        :      1.75s CPU      1.80s WALL (     810 calls)
     g_psi        :      0.02s CPU      0.03s WALL (     573 calls)
     cdiaghg      :      0.43s CPU      0.44s WALL (     777 calls)

     Called by h_psi:
     h_psi:pot    :      1.75s CPU      1.79s WALL (     810 calls)
     h_psi:calbec :      0.11s CPU      0.10s WALL (     810 calls)
     add_vuspsi   :      0.07s CPU      0.08s WALL (     810 calls)

     General routines
     calbec       :      0.14s CPU      0.12s WALL (     954 calls)
     fft          :      0.04s CPU      0.05s WALL (     369 calls)
     fftw         :      1.70s CPU      1.73s WALL (   20880 calls)
     davcio       :      0.00s CPU      0.00s WALL (      96 calls)
 
     Parallel routines
     fft_scatter  :      0.42s CPU      0.44s WALL (   21249 calls)
 
     PWSCF        :     3.84s CPU         3.97s WALL

 
   This run was terminated on:  16:10:24  18Aug2016            

=------------------------------------------------------------------------------=
   JOB DONE.
=------------------------------------------------------------------------------=
