
     Program PWSCF v.5.4.0 (svn rev. 12782M) starts on 18Aug2016 at 16:10:15 

     This program is part of the open-source Quantum ESPRESSO suite
     for quantum simulation of materials; please cite
         "P. Giannozzi et al., J. Phys.:Condens. Matter 21 395502 (2009);
          URL http://www.quantum-espresso.org", 
     in publications or presentations arising from this work. More details at
     http://www.quantum-espresso.org/quote
 
           HOST :    x86_64-pc-linux-gnu
           ARCH :    x86_64
             CC :    icc
            CPP :    cpp
            F90 :    ifort
            F77 :    ifort
         DFLAGS :    -D__INTEL -D__FFTW -D__MPI -D__PARA -D__HDF5
      BLAS LIBS :    -lmkl_intel_lp64  -lmkl_sequential -lmkl_core
    LAPACK LIBS :    
       FFT LIBS :    
      MASS LIBS :    

     Parallel version (MPI), running on     2 processors
     R & G space division:  proc/nbgrp/npool/nimage =       2
     Waiting for input...
     Reading input from standard input
     Message from routine read_cards :
     DEPRECATED: no units specified in ATOMIC_POSITIONS card
     Message from routine read_cards :
     ATOMIC_POSITIONS: units set to alat

     Current dimensions of program PWSCF are:
     Max number of different atomic species (ntypx) = 10
     Max number of k-points (npk) =  40000
     Max angular momentum in pseudopotentials (lmaxx) =  3

     Subspace diagonalization in iterative solution of the eigenvalue problem:
     a serial algorithm will be used

 
     Parallelization info
     --------------------
     sticks:   dense  smooth     PW     G-vecs:    dense   smooth      PW
     Min          54      54     18                 3344     3344     694
     Max          55      55     19                 3345     3345     717
     Sum         109     109     37                 6689     6689    1411
 


     bravais-lattice index     =            6
     lattice parameter (alat)  =       5.3033  a.u.
     unit-cell volume          =    1193.2421 (a.u.)^3
     number of atoms/cell      =            7
     number of atomic types    =            1
     number of electrons       =        21.00
     number of Kohn-Sham states=           15
     kinetic-energy cutoff     =      12.0000  Ry
     charge density cutoff     =      48.0000  Ry
     convergence threshold     =      1.0E-06
     mixing beta               =       0.3000
     number of iterations used =            8  plain     mixing
     Exchange-correlation      =  SLA  PZ   NOGX NOGC ( 1  1  0  0 0 0)
     nstep                     =           50


     celldm(1)=   5.303300  celldm(2)=   0.000000  celldm(3)=   8.000000
     celldm(4)=   0.000000  celldm(5)=   0.000000  celldm(6)=   0.000000

     crystal axes: (cart. coord. in units of alat)
               a(1) = (   1.000000   0.000000   0.000000 )  
               a(2) = (   0.000000   1.000000   0.000000 )  
               a(3) = (   0.000000   0.000000   8.000000 )  

     reciprocal axes: (cart. coord. in units 2 pi/alat)
               b(1) = (  1.000000  0.000000  0.000000 )  
               b(2) = (  0.000000  1.000000  0.000000 )  
               b(3) = (  0.000000  0.000000  0.125000 )  


     PseudoPot. # 1 for Al read from file:
     /home/nvarini/espresso_hdf5/espresso/pseudo/Al.pz-vbc.UPF
     MD5 check sum: 614279c88ff8d45c90147292d03ed420
     Pseudo is Norm-conserving, Zval =  3.0
     Generated by new atomic code, or converted to UPF format
     Using radial grid of  171 points,  2 beta functions with: 
                l(1) =   0
                l(2) =   1

     atomic species   valence    mass     pseudopotential
        Al             3.00     1.00000     Al( 1.00)

     16 Sym. Ops., with inversion, found



   Cartesian axes

     site n.     atom                  positions (alat units)
         1           Al  tau(   1) = (   0.5000000   0.5000000  -2.1213200  )
         2           Al  tau(   2) = (   0.0000000   0.0000000  -1.4142130  )
         3           Al  tau(   3) = (   0.5000000   0.5000000  -0.7071070  )
         4           Al  tau(   4) = (   0.0000000   0.0000000   0.0000000  )
         5           Al  tau(   5) = (   0.5000000   0.5000000   0.7071070  )
         6           Al  tau(   6) = (   0.0000000   0.0000000   1.4142130  )
         7           Al  tau(   7) = (   0.5000000   0.5000000   2.1213200  )

     number of k points=     3  Methfessel-Paxton smearing, width (Ry)=  0.0500
                       cart. coord. in units 2pi/alat
        k(    1) = (   0.1250000   0.1250000   0.0000000), wk =   0.5000000
        k(    2) = (   0.1250000   0.3750000   0.0000000), wk =   1.0000000
        k(    3) = (   0.3750000   0.3750000   0.0000000), wk =   0.5000000

     Dense  grid:     6689 G-vectors     FFT dimensions: (  12,  12,  96)

     Estimated max dynamical RAM per process >       2.88Mb

     Estimated total allocated dynamical RAM >       5.75Mb

     Initial potential from superposition of free atoms
     Check: negative starting charge=   -0.000275

     starting charge   20.98560, renormalised to   21.00000

     negative rho (up, down):  2.756E-04 0.000E+00
     Starting wfc are   28 randomized atomic wfcs

     total cpu time spent up to now is        0.1 secs

     per-process dynamical memory:     3.7 Mb

     Self-consistent Calculation

     iteration #  1     ecut=    12.00 Ry     beta=0.30
     Davidson diagonalization with overlap
     ethr =  1.00E-02,  avg # of iterations =  3.0

     negative rho (up, down):  1.864E-04 0.000E+00

     total cpu time spent up to now is        0.1 secs

     total energy              =     -28.85186853 Ry
     Harris-Foulkes estimate   =     -29.29341597 Ry
     estimated scf accuracy    <       0.92944249 Ry

     iteration #  2     ecut=    12.00 Ry     beta=0.30
     Davidson diagonalization with overlap
     ethr =  4.43E-03,  avg # of iterations =  4.3

     total cpu time spent up to now is        0.2 secs

     total energy              =     -27.67824996 Ry
     Harris-Foulkes estimate   =     -30.53567447 Ry
     estimated scf accuracy    <      39.17352044 Ry

     iteration #  3     ecut=    12.00 Ry     beta=0.30
     Davidson diagonalization with overlap
     ethr =  4.43E-03,  avg # of iterations =  4.7

     total cpu time spent up to now is        0.2 secs

     total energy              =     -29.21379232 Ry
     Harris-Foulkes estimate   =     -29.23665048 Ry
     estimated scf accuracy    <       0.23865699 Ry

     iteration #  4     ecut=    12.00 Ry     beta=0.30
     Davidson diagonalization with overlap
     ethr =  1.14E-03,  avg # of iterations =  1.3

     total cpu time spent up to now is        0.3 secs

     total energy              =     -29.21562203 Ry
     Harris-Foulkes estimate   =     -29.22398983 Ry
     estimated scf accuracy    <       0.04601647 Ry

     iteration #  5     ecut=    12.00 Ry     beta=0.30
     Davidson diagonalization with overlap
     ethr =  2.19E-04,  avg # of iterations =  3.0

     total cpu time spent up to now is        0.3 secs

     total energy              =     -29.21943665 Ry
     Harris-Foulkes estimate   =     -29.22030785 Ry
     estimated scf accuracy    <       0.00647088 Ry

     iteration #  6     ecut=    12.00 Ry     beta=0.30
     Davidson diagonalization with overlap
     ethr =  3.08E-05,  avg # of iterations =  2.3

     total cpu time spent up to now is        0.4 secs

     total energy              =     -29.21991275 Ry
     Harris-Foulkes estimate   =     -29.21994456 Ry
     estimated scf accuracy    <       0.00083461 Ry

     iteration #  7     ecut=    12.00 Ry     beta=0.30
     Davidson diagonalization with overlap
     ethr =  3.97E-06,  avg # of iterations =  3.0

     total cpu time spent up to now is        0.4 secs

     total energy              =     -29.21995494 Ry
     Harris-Foulkes estimate   =     -29.21996739 Ry
     estimated scf accuracy    <       0.00008381 Ry

     iteration #  8     ecut=    12.00 Ry     beta=0.30
     Davidson diagonalization with overlap
     ethr =  3.99E-07,  avg # of iterations =  2.7

     total cpu time spent up to now is        0.4 secs

     total energy              =     -29.21995611 Ry
     Harris-Foulkes estimate   =     -29.21996144 Ry
     estimated scf accuracy    <       0.00003464 Ry

     iteration #  9     ecut=    12.00 Ry     beta=0.30
     Davidson diagonalization with overlap
     ethr =  1.65E-07,  avg # of iterations =  3.0

     total cpu time spent up to now is        0.5 secs

     total energy              =     -29.21995914 Ry
     Harris-Foulkes estimate   =     -29.21996166 Ry
     estimated scf accuracy    <       0.00002324 Ry

     iteration # 10     ecut=    12.00 Ry     beta=0.30
     Davidson diagonalization with overlap
     ethr =  1.11E-07,  avg # of iterations =  1.3

     total cpu time spent up to now is        0.5 secs

     End of self-consistent calculation

          k = 0.1250 0.1250 0.0000 (   822 PWs)   bands (ev):

    -7.0787  -6.5551  -5.7174  -4.5663  -3.1471  -1.4537   0.5129   1.7884
     4.3697   5.5247   5.9953   6.2180   6.7546   7.2249   7.4947

          k = 0.1250 0.3750 0.0000 (   847 PWs)   bands (ev):

    -4.7552  -4.2392  -3.4160  -2.2856  -0.8946  -0.2548   0.2238   0.8006
     1.0423   2.1353   2.7201   3.5257   3.8934   5.1678   6.5172

          k = 0.3750 0.3750 0.0000 (   860 PWs)   bands (ev):

    -2.4876  -1.9832  -1.1751  -0.0656   1.2962   1.3319   1.7993   2.5504
     2.7204   2.8086   3.4481   3.5988   4.1261   4.9121   4.9356

     the Fermi energy is     3.4732 ev

!    total energy              =     -29.21996036 Ry
     Harris-Foulkes estimate   =     -29.21996041 Ry
     estimated scf accuracy    <       0.00000016 Ry

     The total energy is the sum of the following terms:

     one-electron contribution =    -182.00971762 Ry
     hartree contribution      =      97.74552951 Ry
     xc contribution           =     -11.20678872 Ry
     ewald contribution        =      66.25386160 Ry
     smearing contrib. (-TS)   =      -0.00284512 Ry

     convergence has been achieved in  10 iterations

     Forces acting on atoms (Ry/au):

     atom    1 type  1   force =     0.00000000    0.00000000    0.01016393
     atom    2 type  1   force =     0.00000000    0.00000000   -0.00112807
     atom    3 type  1   force =     0.00000000    0.00000000    0.00255005
     atom    4 type  1   force =     0.00000000    0.00000000    0.00000000
     atom    5 type  1   force =     0.00000000    0.00000000   -0.00255005
     atom    6 type  1   force =     0.00000000    0.00000000    0.00112807
     atom    7 type  1   force =     0.00000000    0.00000000   -0.01016393

     Total force =     0.014905     Total SCF correction =     0.000573

     BFGS Geometry Optimization

     number of scf cycles    =   1
     number of bfgs steps    =   0

     energy   new            =     -29.2199603575 Ry

     new trust radius        =       0.0101639258 bohr
     new conv_thr            =       0.0000010000 Ry


ATOMIC_POSITIONS (alat)
Al       0.500000000   0.500000000  -2.119403471
Al       0.000000000   0.000000000  -1.414425711
Al       0.500000000   0.500000000  -0.706626158
Al       0.000000000   0.000000000   0.000000000
Al       0.500000000   0.500000000   0.706626158
Al       0.000000000   0.000000000   1.414425711
Al       0.500000000   0.500000000   2.119403471



     Writing output data file Al.save
     Check: negative starting charge=   -0.000275
     NEW-OLD atomic charge density approx. for the potential
     Check: negative starting charge=   -0.000280

     negative rho (up, down):  1.791E-06 0.000E+00

     total cpu time spent up to now is        0.6 secs

     per-process dynamical memory:     4.8 Mb

     Self-consistent Calculation

     iteration #  1     ecut=    12.00 Ry     beta=0.30
     Davidson diagonalization with overlap
     ethr =  1.00E-06,  avg # of iterations =  2.7

     negative rho (up, down):  2.956E-07 0.000E+00

     total cpu time spent up to now is        0.6 secs

     total energy              =     -29.22015375 Ry
     Harris-Foulkes estimate   =     -29.22017747 Ry
     estimated scf accuracy    <       0.00005008 Ry

     iteration #  2     ecut=    12.00 Ry     beta=0.30
     Davidson diagonalization with overlap
     ethr =  2.38E-07,  avg # of iterations =  3.0

     negative rho (up, down):  2.409E-07 0.000E+00

     total cpu time spent up to now is        0.7 secs

     total energy              =     -29.22010508 Ry
     Harris-Foulkes estimate   =     -29.22024268 Ry
     estimated scf accuracy    <       0.00179453 Ry

     iteration #  3     ecut=    12.00 Ry     beta=0.30
     Davidson diagonalization with overlap
     ethr =  2.38E-07,  avg # of iterations =  2.7

     total cpu time spent up to now is        0.7 secs

     total energy              =     -29.22017365 Ry
     Harris-Foulkes estimate   =     -29.22017395 Ry
     estimated scf accuracy    <       0.00000184 Ry

     iteration #  4     ecut=    12.00 Ry     beta=0.30
     Davidson diagonalization with overlap
     ethr =  8.77E-09,  avg # of iterations =  2.0

     total cpu time spent up to now is        0.8 secs

     End of self-consistent calculation

          k = 0.1250 0.1250 0.0000 (   822 PWs)   bands (ev):

    -7.0832  -6.5613  -5.7279  -4.5712  -3.1447  -1.4506   0.5179   1.7934
     4.3761   5.5200   5.9887   6.2250   6.7424   7.2252   7.5042

          k = 0.1250 0.3750 0.0000 (   847 PWs)   bands (ev):

    -4.7597  -4.2453  -3.4266  -2.2908  -0.8925  -0.2593   0.2176   0.8034
     1.0315   2.1298   2.7248   3.5277   3.8975   5.1712   6.5234

          k = 0.3750 0.3750 0.0000 (   860 PWs)   bands (ev):

    -2.4921  -1.9894  -1.1858  -0.0710   1.2980   1.3274   1.7928   2.5386
     2.7158   2.8082   3.4452   3.5925   4.1167   4.9148   4.9400

     the Fermi energy is     3.4729 ev

!    total energy              =     -29.22017339 Ry
     Harris-Foulkes estimate   =     -29.22017393 Ry
     estimated scf accuracy    <       0.00000082 Ry

     The total energy is the sum of the following terms:

     one-electron contribution =    -182.37992503 Ry
     hartree contribution      =      97.93249609 Ry
     xc contribution           =     -11.20946099 Ry
     ewald contribution        =      66.43960916 Ry
     smearing contrib. (-TS)   =      -0.00289262 Ry

     convergence has been achieved in   4 iterations

     Forces acting on atoms (Ry/au):

     atom    1 type  1   force =     0.00000000    0.00000000    0.00950606
     atom    2 type  1   force =     0.00000000    0.00000000   -0.00037404
     atom    3 type  1   force =     0.00000000    0.00000000    0.00216019
     atom    4 type  1   force =     0.00000000    0.00000000    0.00000000
     atom    5 type  1   force =     0.00000000    0.00000000   -0.00216019
     atom    6 type  1   force =     0.00000000    0.00000000    0.00037404
     atom    7 type  1   force =     0.00000000    0.00000000   -0.00950606

     Total force =     0.013796     Total SCF correction =     0.001148

     number of scf cycles    =   2
     number of bfgs steps    =   1

     energy   old            =     -29.2199603575 Ry
     energy   new            =     -29.2201733892 Ry

     CASE: energy  _new < energy  _old


     WARNING: bfgs curvature condition failed, Theta= 0.867
     new trust radius        =       0.0111803184 bohr
     new conv_thr            =       0.0000000213 Ry


ATOMIC_POSITIONS (alat)
Al       0.500000000   0.500000000  -2.117295290
Al       0.000000000   0.000000000  -1.414514437
Al       0.500000000   0.500000000  -0.706145183
Al       0.000000000   0.000000000   0.000000000
Al       0.500000000   0.500000000   0.706145183
Al       0.000000000   0.000000000   1.414514437
Al       0.500000000   0.500000000   2.117295290



     Writing output data file Al.save
     Check: negative starting charge=   -0.000280
     NEW-OLD atomic charge density approx. for the potential
     Check: negative starting charge=   -0.000284

     negative rho (up, down):  2.233E-06 0.000E+00

     total cpu time spent up to now is        0.8 secs

     per-process dynamical memory:     4.8 Mb

     Self-consistent Calculation

     iteration #  1     ecut=    12.00 Ry     beta=0.30
     Davidson diagonalization with overlap
     ethr =  1.00E-06,  avg # of iterations =  2.7

     negative rho (up, down):  3.866E-07 0.000E+00

     total cpu time spent up to now is        0.9 secs

     total energy              =     -29.22038302 Ry
     Harris-Foulkes estimate   =     -29.22039228 Ry
     estimated scf accuracy    <       0.00002168 Ry

     iteration #  2     ecut=    12.00 Ry     beta=0.30
     Davidson diagonalization with overlap
     ethr =  1.03E-07,  avg # of iterations =  2.3

     negative rho (up, down):  1.810E-07 0.000E+00

     total cpu time spent up to now is        0.9 secs

     total energy              =     -29.22038306 Ry
     Harris-Foulkes estimate   =     -29.22039189 Ry
     estimated scf accuracy    <       0.00004253 Ry

     iteration #  3     ecut=    12.00 Ry     beta=0.30
     Davidson diagonalization with overlap
     ethr =  1.03E-07,  avg # of iterations =  2.0

     negative rho (up, down):  7.168E-08 0.000E+00

     total cpu time spent up to now is        0.9 secs

     total energy              =     -29.22038416 Ry
     Harris-Foulkes estimate   =     -29.22039279 Ry
     estimated scf accuracy    <       0.00009971 Ry

     iteration #  4     ecut=    12.00 Ry     beta=0.30
     Davidson diagonalization with overlap
     ethr =  1.03E-07,  avg # of iterations =  2.0

     total cpu time spent up to now is        1.0 secs

     total energy              =     -29.22038881 Ry
     Harris-Foulkes estimate   =     -29.22038904 Ry
     estimated scf accuracy    <       0.00000246 Ry

     iteration #  5     ecut=    12.00 Ry     beta=0.30
     Davidson diagonalization with overlap
     ethr =  1.17E-08,  avg # of iterations =  1.3

     total cpu time spent up to now is        1.0 secs

     total energy              =     -29.22038899 Ry
     Harris-Foulkes estimate   =     -29.22038895 Ry
     estimated scf accuracy    <       0.00000013 Ry

     iteration #  6     ecut=    12.00 Ry     beta=0.30
     Davidson diagonalization with overlap
     ethr =  6.15E-10,  avg # of iterations =  3.0

     total cpu time spent up to now is        1.1 secs

     total energy              =     -29.22038901 Ry
     Harris-Foulkes estimate   =     -29.22038902 Ry
     estimated scf accuracy    <       0.00000007 Ry

     iteration #  7     ecut=    12.00 Ry     beta=0.30
     Davidson diagonalization with overlap
     ethr =  3.21E-10,  avg # of iterations =  2.3

     total cpu time spent up to now is        1.1 secs

     total energy              =     -29.22038901 Ry
     Harris-Foulkes estimate   =     -29.22038903 Ry
     estimated scf accuracy    <       0.00000007 Ry

     iteration #  8     ecut=    12.00 Ry     beta=0.30
     Davidson diagonalization with overlap
     ethr =  3.21E-10,  avg # of iterations =  1.3

     total cpu time spent up to now is        1.1 secs

     End of self-consistent calculation

          k = 0.1250 0.1250 0.0000 (   822 PWs)   bands (ev):

    -7.0896  -6.5689  -5.7404  -4.5779  -3.1445  -1.4492   0.5214   1.7970
     4.3816   5.5134   5.9804   6.2306   6.7280   7.2215   7.5045

          k = 0.1250 0.3750 0.0000 (   847 PWs)   bands (ev):

    -4.7661  -4.2529  -3.4392  -2.2976  -0.8925  -0.2658   0.2099   0.8047
     1.0187   2.1225   2.7279   3.5277   3.9002   5.1730   6.5286

          k = 0.3750 0.3750 0.0000 (   860 PWs)   bands (ev):

    -2.4985  -1.9970  -1.1987  -0.0781   1.2976   1.3208   1.7848   2.5247
     2.7093   2.8060   3.4409   3.5844   4.1053   4.9152   4.9429

     the Fermi energy is     3.4708 ev

!    total energy              =     -29.22038902 Ry
     Harris-Foulkes estimate   =     -29.22038902 Ry
     estimated scf accuracy    <          2.9E-09 Ry

     The total energy is the sum of the following terms:

     one-electron contribution =    -182.79178547 Ry
     hartree contribution      =      98.13457090 Ry
     xc contribution           =     -11.21234051 Ry
     ewald contribution        =      66.65210744 Ry
     smearing contrib. (-TS)   =      -0.00294136 Ry

     convergence has been achieved in   8 iterations

     Forces acting on atoms (Ry/au):

     atom    1 type  1   force =     0.00000000    0.00000000    0.00879992
     atom    2 type  1   force =     0.00000000    0.00000000    0.00033709
     atom    3 type  1   force =     0.00000000    0.00000000    0.00192250
     atom    4 type  1   force =     0.00000000    0.00000000    0.00000000
     atom    5 type  1   force =     0.00000000    0.00000000   -0.00192250
     atom    6 type  1   force =     0.00000000    0.00000000   -0.00033709
     atom    7 type  1   force =     0.00000000    0.00000000   -0.00879992

     Total force =     0.012747     Total SCF correction =     0.000087

     number of scf cycles    =   3
     number of bfgs steps    =   2

     energy   old            =     -29.2201733892 Ry
     energy   new            =     -29.2203890189 Ry

     CASE: energy  _new < energy  _old

     new trust radius        =       0.0167704775 bohr
     new conv_thr            =       0.0000000216 Ry


ATOMIC_POSITIONS (alat)
Al       0.500000000   0.500000000  -2.114133018
Al       0.000000000   0.000000000  -1.414205221
Al       0.500000000   0.500000000  -0.705470316
Al       0.000000000   0.000000000   0.000000000
Al       0.500000000   0.500000000   0.705470316
Al       0.000000000   0.000000000   1.414205221
Al       0.500000000   0.500000000   2.114133018



     Writing output data file Al.save
     Check: negative starting charge=   -0.000284
     NEW-OLD atomic charge density approx. for the potential
     Check: negative starting charge=   -0.000288

     negative rho (up, down):  7.147E-06 0.000E+00

     total cpu time spent up to now is        1.2 secs

     per-process dynamical memory:     4.8 Mb

     Self-consistent Calculation

     iteration #  1     ecut=    12.00 Ry     beta=0.30
     Davidson diagonalization with overlap
     ethr =  1.00E-06,  avg # of iterations =  2.7

     negative rho (up, down):  2.555E-06 0.000E+00

     total cpu time spent up to now is        1.2 secs

     total energy              =     -29.22067681 Ry
     Harris-Foulkes estimate   =     -29.22068815 Ry
     estimated scf accuracy    <       0.00002854 Ry

     iteration #  2     ecut=    12.00 Ry     beta=0.30
     Davidson diagonalization with overlap
     ethr =  1.36E-07,  avg # of iterations =  3.0

     negative rho (up, down):  1.855E-06 0.000E+00

     total cpu time spent up to now is        1.3 secs

     total energy              =     -29.22067045 Ry
     Harris-Foulkes estimate   =     -29.22069035 Ry
     estimated scf accuracy    <       0.00014699 Ry

     iteration #  3     ecut=    12.00 Ry     beta=0.30
     Davidson diagonalization with overlap
     ethr =  1.36E-07,  avg # of iterations =  2.0

     negative rho (up, down):  7.182E-07 0.000E+00

     total cpu time spent up to now is        1.3 secs

     total energy              =     -29.22067893 Ry
     Harris-Foulkes estimate   =     -29.22068754 Ry
     estimated scf accuracy    <       0.00009704 Ry

     iteration #  4     ecut=    12.00 Ry     beta=0.30
     Davidson diagonalization with overlap
     ethr =  1.36E-07,  avg # of iterations =  2.0

     negative rho (up, down):  1.061E-08 0.000E+00

     total cpu time spent up to now is        1.4 secs

     total energy              =     -29.22068340 Ry
     Harris-Foulkes estimate   =     -29.22068370 Ry
     estimated scf accuracy    <       0.00000241 Ry

     iteration #  5     ecut=    12.00 Ry     beta=0.30
     Davidson diagonalization with overlap
     ethr =  1.15E-08,  avg # of iterations =  1.3

     total cpu time spent up to now is        1.4 secs

     total energy              =     -29.22068370 Ry
     Harris-Foulkes estimate   =     -29.22068360 Ry
     estimated scf accuracy    <       0.00000025 Ry

     iteration #  6     ecut=    12.00 Ry     beta=0.30
     Davidson diagonalization with overlap
     ethr =  1.19E-09,  avg # of iterations =  2.0

     total cpu time spent up to now is        1.4 secs

     total energy              =     -29.22068373 Ry
     Harris-Foulkes estimate   =     -29.22068373 Ry
     estimated scf accuracy    <       0.00000005 Ry

     iteration #  7     ecut=    12.00 Ry     beta=0.30
     Davidson diagonalization with overlap
     ethr =  2.24E-10,  avg # of iterations =  2.3

     total cpu time spent up to now is        1.5 secs

     total energy              =     -29.22068374 Ry
     Harris-Foulkes estimate   =     -29.22068375 Ry
     estimated scf accuracy    <       0.00000006 Ry

     iteration #  8     ecut=    12.00 Ry     beta=0.30
     Davidson diagonalization with overlap
     ethr =  2.24E-10,  avg # of iterations =  2.0

     total cpu time spent up to now is        1.5 secs

     End of self-consistent calculation

          k = 0.1250 0.1250 0.0000 (   822 PWs)   bands (ev):

    -7.0991  -6.5805  -5.7562  -4.5860  -3.1436  -1.4458   0.5278   1.8036
     4.3913   5.5035   5.9677   6.2398   6.7097   7.2166   7.5080

          k = 0.1250 0.3750 0.0000 (   847 PWs)   bands (ev):

    -4.7756  -4.2645  -3.4551  -2.3060  -0.8922  -0.2753   0.1981   0.8077
     1.0026   2.1135   2.7338   3.5281   3.9055   5.1767   6.5378

          k = 0.3750 0.3750 0.0000 (   860 PWs)   bands (ev):

    -2.5081  -2.0088  -1.2148  -0.0869   1.2974   1.3111   1.7725   2.5071
     2.6996   2.8032   3.4349   3.5743   4.0910   4.9158   4.9486

     the Fermi energy is     3.4687 ev

!    total energy              =     -29.22068375 Ry
     Harris-Foulkes estimate   =     -29.22068375 Ry
     estimated scf accuracy    <          2.7E-09 Ry

     The total energy is the sum of the following terms:

     one-electron contribution =    -183.47144734 Ry
     hartree contribution      =      98.47177410 Ry
     xc contribution           =     -11.21672454 Ry
     ewald contribution        =      66.99870690 Ry
     smearing contrib. (-TS)   =      -0.00299286 Ry

     convergence has been achieved in   8 iterations

     Forces acting on atoms (Ry/au):

     atom    1 type  1   force =     0.00000000    0.00000000    0.00786359
     atom    2 type  1   force =     0.00000000    0.00000000    0.00119739
     atom    3 type  1   force =     0.00000000    0.00000000    0.00160753
     atom    4 type  1   force =     0.00000000    0.00000000    0.00000000
     atom    5 type  1   force =     0.00000000    0.00000000   -0.00160753
     atom    6 type  1   force =     0.00000000    0.00000000   -0.00119739
     atom    7 type  1   force =     0.00000000    0.00000000   -0.00786359

     Total force =     0.011476     Total SCF correction =     0.000074

     number of scf cycles    =   4
     number of bfgs steps    =   3

     energy   old            =     -29.2203890189 Ry
     energy   new            =     -29.2206837464 Ry

     CASE: energy  _new < energy  _old

     new trust radius        =       0.0251557163 bohr
     new conv_thr            =       0.0000000295 Ry


ATOMIC_POSITIONS (alat)
Al       0.500000000   0.500000000  -2.109389610
Al       0.000000000   0.000000000  -1.410783865
Al       0.500000000   0.500000000  -0.704783806
Al       0.000000000   0.000000000   0.000000000
Al       0.500000000   0.500000000   0.704783806
Al       0.000000000   0.000000000   1.410783865
Al       0.500000000   0.500000000   2.109389610



     Writing output data file Al.save
     Check: negative starting charge=   -0.000288
     NEW-OLD atomic charge density approx. for the potential
     Check: negative starting charge=   -0.000294

     negative rho (up, down):  1.786E-05 0.000E+00

     total cpu time spent up to now is        1.6 secs

     per-process dynamical memory:     4.8 Mb

     Self-consistent Calculation

     iteration #  1     ecut=    12.00 Ry     beta=0.30
     Davidson diagonalization with overlap
     ethr =  1.00E-06,  avg # of iterations =  3.7

     negative rho (up, down):  7.511E-06 0.000E+00

     total cpu time spent up to now is        1.6 secs

     total energy              =     -29.22103597 Ry
     Harris-Foulkes estimate   =     -29.22112698 Ry
     estimated scf accuracy    <       0.00019485 Ry

     iteration #  2     ecut=    12.00 Ry     beta=0.30
     Davidson diagonalization with overlap
     ethr =  9.28E-07,  avg # of iterations =  3.3

     negative rho (up, down):  6.732E-06 0.000E+00

     total cpu time spent up to now is        1.7 secs

     total energy              =     -29.22089169 Ry
     Harris-Foulkes estimate   =     -29.22130862 Ry
     estimated scf accuracy    <       0.00482071 Ry

     iteration #  3     ecut=    12.00 Ry     beta=0.30
     Davidson diagonalization with overlap
     ethr =  9.28E-07,  avg # of iterations =  3.0

     negative rho (up, down):  4.617E-06 0.000E+00

     total cpu time spent up to now is        1.7 secs

     total energy              =     -29.22110390 Ry
     Harris-Foulkes estimate   =     -29.22112297 Ry
     estimated scf accuracy    <       0.00014894 Ry

     iteration #  4     ecut=    12.00 Ry     beta=0.30
     Davidson diagonalization with overlap
     ethr =  7.09E-07,  avg # of iterations =  1.0

     negative rho (up, down):  6.492E-08 0.000E+00

     total cpu time spent up to now is        1.8 secs

     total energy              =     -29.22111329 Ry
     Harris-Foulkes estimate   =     -29.22111281 Ry
     estimated scf accuracy    <       0.00000258 Ry

     iteration #  5     ecut=    12.00 Ry     beta=0.30
     Davidson diagonalization with overlap
     ethr =  1.23E-08,  avg # of iterations =  3.0

     total cpu time spent up to now is        1.8 secs

     total energy              =     -29.22111382 Ry
     Harris-Foulkes estimate   =     -29.22111401 Ry
     estimated scf accuracy    <       0.00000246 Ry

     iteration #  6     ecut=    12.00 Ry     beta=0.30
     Davidson diagonalization with overlap
     ethr =  1.17E-08,  avg # of iterations =  1.7

     total cpu time spent up to now is        1.8 secs

     total energy              =     -29.22111400 Ry
     Harris-Foulkes estimate   =     -29.22111395 Ry
     estimated scf accuracy    <       0.00000004 Ry

     iteration #  7     ecut=    12.00 Ry     beta=0.30
     Davidson diagonalization with overlap
     ethr =  1.86E-10,  avg # of iterations =  3.3

     total cpu time spent up to now is        1.9 secs

     total energy              =     -29.22111399 Ry
     Harris-Foulkes estimate   =     -29.22111401 Ry
     estimated scf accuracy    <       0.00000014 Ry

     iteration #  8     ecut=    12.00 Ry     beta=0.30
     Davidson diagonalization with overlap
     ethr =  1.86E-10,  avg # of iterations =  2.7

     total cpu time spent up to now is        1.9 secs

     total energy              =     -29.22111401 Ry
     Harris-Foulkes estimate   =     -29.22111402 Ry
     estimated scf accuracy    <       0.00000006 Ry

     iteration #  9     ecut=    12.00 Ry     beta=0.30
     Davidson diagonalization with overlap
     ethr =  1.86E-10,  avg # of iterations =  1.3

     total cpu time spent up to now is        2.0 secs

     End of self-consistent calculation

          k = 0.1250 0.1250 0.0000 (   822 PWs)   bands (ev):

    -7.1188  -6.6012  -5.7670  -4.5934  -3.1486  -1.4417   0.5370   1.8130
     4.4092   5.4828   5.9451   6.2537   6.6977   7.2038   7.5159

          k = 0.1250 0.3750 0.0000 (   847 PWs)   bands (ev):

    -4.7952  -4.2853  -3.4661  -2.3137  -0.8978  -0.2951   0.1768   0.8114
     0.9915   2.1053   2.7416   3.5232   3.9140   5.1803   6.5547

          k = 0.3750 0.3750 0.0000 (   860 PWs)   bands (ev):

    -2.5278  -2.0299  -1.2261  -0.0951   1.2909   1.2909   1.7505   2.4952
     2.6795   2.7962   3.4245   3.5652   4.0807   4.9076   4.9568

     the Fermi energy is     3.4642 ev

!    total energy              =     -29.22111401 Ry
     Harris-Foulkes estimate   =     -29.22111401 Ry
     estimated scf accuracy    <          3.5E-09 Ry

     The total energy is the sum of the following terms:

     one-electron contribution =    -184.85921006 Ry
     hartree contribution      =      99.16186599 Ry
     xc contribution           =     -11.22333343 Ry
     ewald contribution        =      67.70246997 Ry
     smearing contrib. (-TS)   =      -0.00290648 Ry

     convergence has been achieved in   9 iterations

     Forces acting on atoms (Ry/au):

     atom    1 type  1   force =     0.00000000    0.00000000    0.00727541
     atom    2 type  1   force =     0.00000000    0.00000000    0.00079188
     atom    3 type  1   force =     0.00000000    0.00000000    0.00198654
     atom    4 type  1   force =     0.00000000    0.00000000    0.00000000
     atom    5 type  1   force =     0.00000000    0.00000000   -0.00198654
     atom    6 type  1   force =     0.00000000    0.00000000   -0.00079188
     atom    7 type  1   force =     0.00000000    0.00000000   -0.00727541

     Total force =     0.010724     Total SCF correction =     0.000105

     number of scf cycles    =   5
     number of bfgs steps    =   4

     energy   old            =     -29.2206837464 Ry
     energy   new            =     -29.2211140076 Ry

     CASE: energy  _new < energy  _old


     WARNING: bfgs curvature condition failed, Theta= 0.872
     new trust radius        =       0.0377335744 bohr
     new conv_thr            =       0.0000000430 Ry


ATOMIC_POSITIONS (alat)
Al       0.500000000   0.500000000  -2.102274498
Al       0.000000000   0.000000000  -1.406593662
Al       0.500000000   0.500000000  -0.703537035
Al       0.000000000   0.000000000   0.000000000
Al       0.500000000   0.500000000   0.703537035
Al       0.000000000   0.000000000   1.406593662
Al       0.500000000   0.500000000   2.102274498



     Writing output data file Al.save
     Check: negative starting charge=   -0.000294
     NEW-OLD atomic charge density approx. for the potential
     Check: negative starting charge=   -0.000293

     negative rho (up, down):  3.993E-05 0.000E+00

     total cpu time spent up to now is        2.0 secs

     per-process dynamical memory:     4.8 Mb

     Self-consistent Calculation

     iteration #  1     ecut=    12.00 Ry     beta=0.30
     Davidson diagonalization with overlap
     ethr =  1.00E-06,  avg # of iterations =  4.0

     negative rho (up, down):  1.936E-05 0.000E+00

     total cpu time spent up to now is        2.1 secs

     total energy              =     -29.22154999 Ry
     Harris-Foulkes estimate   =     -29.22170305 Ry
     estimated scf accuracy    <       0.00033087 Ry

     iteration #  2     ecut=    12.00 Ry     beta=0.30
     Davidson diagonalization with overlap
     ethr =  1.58E-06,  avg # of iterations =  3.3

     negative rho (up, down):  1.751E-05 0.000E+00

     total cpu time spent up to now is        2.1 secs

     total energy              =     -29.22129730 Ry
     Harris-Foulkes estimate   =     -29.22201928 Ry
     estimated scf accuracy    <       0.00840872 Ry

     iteration #  3     ecut=    12.00 Ry     beta=0.30
     Davidson diagonalization with overlap
     ethr =  1.58E-06,  avg # of iterations =  3.0

     negative rho (up, down):  1.244E-05 0.000E+00

     total cpu time spent up to now is        2.2 secs

     total energy              =     -29.22166602 Ry
     Harris-Foulkes estimate   =     -29.22169334 Ry
     estimated scf accuracy    <       0.00021059 Ry

     iteration #  4     ecut=    12.00 Ry     beta=0.30
     Davidson diagonalization with overlap
     ethr =  1.00E-06,  avg # of iterations =  1.0

     negative rho (up, down):  6.572E-07 0.000E+00

     total cpu time spent up to now is        2.2 secs

     total energy              =     -29.22167952 Ry
     Harris-Foulkes estimate   =     -29.22167891 Ry
     estimated scf accuracy    <       0.00000554 Ry

     iteration #  5     ecut=    12.00 Ry     beta=0.30
     Davidson diagonalization with overlap
     ethr =  2.64E-08,  avg # of iterations =  2.7

     total cpu time spent up to now is        2.3 secs

     total energy              =     -29.22168060 Ry
     Harris-Foulkes estimate   =     -29.22168061 Ry
     estimated scf accuracy    <       0.00000370 Ry

     iteration #  6     ecut=    12.00 Ry     beta=0.30
     Davidson diagonalization with overlap
     ethr =  1.76E-08,  avg # of iterations =  1.0

     total cpu time spent up to now is        2.3 secs

     total energy              =     -29.22168071 Ry
     Harris-Foulkes estimate   =     -29.22168071 Ry
     estimated scf accuracy    <       0.00000052 Ry

     iteration #  7     ecut=    12.00 Ry     beta=0.30
     Davidson diagonalization with overlap
     ethr =  2.48E-09,  avg # of iterations =  2.7

     total cpu time spent up to now is        2.3 secs

     total energy              =     -29.22168077 Ry
     Harris-Foulkes estimate   =     -29.22168082 Ry
     estimated scf accuracy    <       0.00000042 Ry

     iteration #  8     ecut=    12.00 Ry     beta=0.30
     Davidson diagonalization with overlap
     ethr =  1.99E-09,  avg # of iterations =  1.7

     total cpu time spent up to now is        2.4 secs

     End of self-consistent calculation

          k = 0.1250 0.1250 0.0000 (   822 PWs)   bands (ev):

    -7.1471  -6.6313  -5.7878  -4.6063  -3.1539  -1.4355   0.5508   1.8273
     4.4348   5.4530   5.9123   6.2736   6.6741   7.1850   7.5278

          k = 0.1250 0.3750 0.0000 (   847 PWs)   bands (ev):

    -4.8235  -4.3154  -3.4872  -2.3272  -0.9043  -0.3236   0.1460   0.8170
     0.9702   2.0909   2.7534   3.5176   3.9267   5.1860   6.5788

          k = 0.3750 0.3750 0.0000 (   860 PWs)   bands (ev):

    -2.5563  -2.0605  -1.2477  -0.1093   1.2617   1.2831   1.7187   2.4721
     2.6506   2.7852   3.4103   3.5493   4.0611   4.8982   4.9692

     the Fermi energy is     3.4579 ev

!    total energy              =     -29.22168078 Ry
     Harris-Foulkes estimate   =     -29.22168080 Ry
     estimated scf accuracy    <       0.00000002 Ry

     The total energy is the sum of the following terms:

     one-electron contribution =    -186.83901636 Ry
     hartree contribution      =     100.14549843 Ry
     xc contribution           =     -11.23328384 Ry
     ewald contribution        =      68.70799506 Ry
     smearing contrib. (-TS)   =      -0.00287406 Ry

     convergence has been achieved in   8 iterations

     Forces acting on atoms (Ry/au):

     atom    1 type  1   force =     0.00000000    0.00000000    0.00608627
     atom    2 type  1   force =     0.00000000    0.00000000    0.00073896
     atom    3 type  1   force =     0.00000000    0.00000000    0.00224747
     atom    4 type  1   force =     0.00000000    0.00000000    0.00000000
     atom    5 type  1   force =     0.00000000    0.00000000   -0.00224747
     atom    6 type  1   force =     0.00000000    0.00000000   -0.00073896
     atom    7 type  1   force =     0.00000000    0.00000000   -0.00608627

     Total force =     0.009235     Total SCF correction =     0.000254

     number of scf cycles    =   6
     number of bfgs steps    =   5

     energy   old            =     -29.2211140076 Ry
     energy   new            =     -29.2216807815 Ry

     CASE: energy  _new < energy  _old

     new trust radius        =       0.0566003617 bohr
     new conv_thr            =       0.0000000567 Ry


ATOMIC_POSITIONS (alat)
Al       0.500000000   0.500000000  -2.091601829
Al       0.000000000   0.000000000  -1.400247319
Al       0.500000000   0.500000000  -0.701481657
Al       0.000000000   0.000000000   0.000000000
Al       0.500000000   0.500000000   0.701481657
Al       0.000000000   0.000000000   1.400247319
Al       0.500000000   0.500000000   2.091601829



     Writing output data file Al.save
     Check: negative starting charge=   -0.000293
     NEW-OLD atomic charge density approx. for the potential
     Check: negative starting charge=   -0.000291

     negative rho (up, down):  8.157E-05 0.000E+00

     total cpu time spent up to now is        2.4 secs

     per-process dynamical memory:     4.8 Mb

     Self-consistent Calculation

     iteration #  1     ecut=    12.00 Ry     beta=0.30
     Davidson diagonalization with overlap
     ethr =  1.00E-06,  avg # of iterations =  4.7

     negative rho (up, down):  4.368E-05 0.000E+00

     total cpu time spent up to now is        2.5 secs

     total energy              =     -29.22203837 Ry
     Harris-Foulkes estimate   =     -29.22242029 Ry
     estimated scf accuracy    <       0.00081918 Ry

     iteration #  2     ecut=    12.00 Ry     beta=0.30
     Davidson diagonalization with overlap
     ethr =  3.90E-06,  avg # of iterations =  3.3

     negative rho (up, down):  4.022E-05 0.000E+00

     total cpu time spent up to now is        2.6 secs

     total energy              =     -29.22137466 Ry
     Harris-Foulkes estimate   =     -29.22327084 Ry
     estimated scf accuracy    <       0.02248819 Ry

     iteration #  3     ecut=    12.00 Ry     beta=0.30
     Davidson diagonalization with overlap
     ethr =  3.90E-06,  avg # of iterations =  3.0

     negative rho (up, down):  2.961E-05 0.000E+00

     total cpu time spent up to now is        2.6 secs

     total energy              =     -29.22233865 Ry
     Harris-Foulkes estimate   =     -29.22239065 Ry
     estimated scf accuracy    <       0.00036882 Ry

     iteration #  4     ecut=    12.00 Ry     beta=0.30
     Davidson diagonalization with overlap
     ethr =  1.76E-06,  avg # of iterations =  1.0

     negative rho (up, down):  3.176E-06 0.000E+00

     total cpu time spent up to now is        2.6 secs

     total energy              =     -29.22236460 Ry
     Harris-Foulkes estimate   =     -29.22236338 Ry
     estimated scf accuracy    <       0.00001200 Ry

     iteration #  5     ecut=    12.00 Ry     beta=0.30
     Davidson diagonalization with overlap
     ethr =  5.72E-08,  avg # of iterations =  2.7

     negative rho (up, down):  3.068E-08 0.000E+00

     total cpu time spent up to now is        2.7 secs

     total energy              =     -29.22236662 Ry
     Harris-Foulkes estimate   =     -29.22236670 Ry
     estimated scf accuracy    <       0.00000650 Ry

     iteration #  6     ecut=    12.00 Ry     beta=0.30
     Davidson diagonalization with overlap
     ethr =  3.10E-08,  avg # of iterations =  1.0

     total cpu time spent up to now is        2.7 secs

     total energy              =     -29.22236691 Ry
     Harris-Foulkes estimate   =     -29.22236684 Ry
     estimated scf accuracy    <       0.00000075 Ry

     iteration #  7     ecut=    12.00 Ry     beta=0.30
     Davidson diagonalization with overlap
     ethr =  3.59E-09,  avg # of iterations =  2.7

     total cpu time spent up to now is        2.7 secs

     total energy              =     -29.22236699 Ry
     Harris-Foulkes estimate   =     -29.22236709 Ry
     estimated scf accuracy    <       0.00000085 Ry

     iteration #  8     ecut=    12.00 Ry     beta=0.30
     Davidson diagonalization with overlap
     ethr =  3.59E-09,  avg # of iterations =  1.7

     total cpu time spent up to now is        2.8 secs

     total energy              =     -29.22236706 Ry
     Harris-Foulkes estimate   =     -29.22236706 Ry
     estimated scf accuracy    <       0.00000007 Ry

     iteration #  9     ecut=    12.00 Ry     beta=0.30
     Davidson diagonalization with overlap
     ethr =  3.17E-10,  avg # of iterations =  1.7

     total cpu time spent up to now is        2.8 secs

     End of self-consistent calculation

          k = 0.1250 0.1250 0.0000 (   822 PWs)   bands (ev):

    -7.1909  -6.6766  -5.8195  -4.6259  -3.1618  -1.4265   0.5714   1.8490
     4.4729   5.4069   5.8630   6.3017   6.6382   7.1550   7.5465

          k = 0.1250 0.3750 0.0000 (   847 PWs)   bands (ev):

    -4.8673  -4.3608  -3.5194  -2.3478  -0.9140  -0.3677   0.0996   0.8251
     0.9378   2.0691   2.7711   3.5096   3.9457   5.1941   6.6147

          k = 0.3750 0.3750 0.0000 (   860 PWs)   bands (ev):

    -2.6004  -2.1065  -1.2806  -0.1310   1.2165   1.2713   1.6707   2.4368
     2.6059   2.7664   3.3910   3.5249   4.0312   4.8843   4.9878

     the Fermi energy is     3.4485 ev

!    total energy              =     -29.22236705 Ry
     Harris-Foulkes estimate   =     -29.22236706 Ry
     estimated scf accuracy    <       0.00000001 Ry

     The total energy is the sum of the following terms:

     one-electron contribution =    -189.84913516 Ry
     hartree contribution      =     101.64215171 Ry
     xc contribution           =     -11.24832098 Ry
     ewald contribution        =      70.23584867 Ry
     smearing contrib. (-TS)   =      -0.00291129 Ry

     convergence has been achieved in   9 iterations

     Forces acting on atoms (Ry/au):

     atom    1 type  1   force =     0.00000000    0.00000000    0.00425782
     atom    2 type  1   force =     0.00000000    0.00000000    0.00064592
     atom    3 type  1   force =     0.00000000    0.00000000    0.00259129
     atom    4 type  1   force =     0.00000000    0.00000000    0.00000000
     atom    5 type  1   force =     0.00000000    0.00000000   -0.00259129
     atom    6 type  1   force =     0.00000000    0.00000000   -0.00064592
     atom    7 type  1   force =     0.00000000    0.00000000   -0.00425782

     Total force =     0.007108     Total SCF correction =     0.000193

     number of scf cycles    =   7
     number of bfgs steps    =   6

     energy   old            =     -29.2216807815 Ry
     energy   new            =     -29.2223670497 Ry

     CASE: energy  _new < energy  _old

     new trust radius        =       0.0625252437 bohr
     new conv_thr            =       0.0000000426 Ry


ATOMIC_POSITIONS (alat)
Al       0.500000000   0.500000000  -2.079811954
Al       0.000000000   0.000000000  -1.390381233
Al       0.500000000   0.500000000  -0.689711479
Al       0.000000000   0.000000000   0.000000000
Al       0.500000000   0.500000000   0.689711479
Al       0.000000000   0.000000000   1.390381233
Al       0.500000000   0.500000000   2.079811954



     Writing output data file Al.save
     Check: negative starting charge=   -0.000291
     NEW-OLD atomic charge density approx. for the potential
     Check: negative starting charge=   -0.000292

     negative rho (up, down):  1.090E-04 0.000E+00

     total cpu time spent up to now is        2.9 secs

     per-process dynamical memory:     4.8 Mb

     Self-consistent Calculation

     iteration #  1     ecut=    12.00 Ry     beta=0.30
     Davidson diagonalization with overlap
     ethr =  1.00E-06,  avg # of iterations =  6.0

     negative rho (up, down):  5.979E-05 0.000E+00

     total cpu time spent up to now is        3.0 secs

     total energy              =     -29.22143615 Ry
     Harris-Foulkes estimate   =     -29.22311747 Ry
     estimated scf accuracy    <       0.00347750 Ry

     iteration #  2     ecut=    12.00 Ry     beta=0.30
     Davidson diagonalization with overlap
     ethr =  1.66E-05,  avg # of iterations =  3.3

     negative rho (up, down):  5.529E-05 0.000E+00

     total cpu time spent up to now is        3.0 secs

     total energy              =     -29.21782692 Ry
     Harris-Foulkes estimate   =     -29.22804999 Ry
     estimated scf accuracy    <       0.12930446 Ry

     iteration #  3     ecut=    12.00 Ry     beta=0.30
     Davidson diagonalization with overlap
     ethr =  1.66E-05,  avg # of iterations =  3.3

     negative rho (up, down):  3.776E-05 0.000E+00

     total cpu time spent up to now is        3.1 secs

     total energy              =     -29.22292280 Ry
     Harris-Foulkes estimate   =     -29.22295211 Ry
     estimated scf accuracy    <       0.00016177 Ry

     iteration #  4     ecut=    12.00 Ry     beta=0.30
     Davidson diagonalization with overlap
     ethr =  7.70E-07,  avg # of iterations =  2.0

     negative rho (up, down):  8.952E-06 0.000E+00

     total cpu time spent up to now is        3.1 secs

     total energy              =     -29.22294207 Ry
     Harris-Foulkes estimate   =     -29.22294410 Ry
     estimated scf accuracy    <       0.00003615 Ry

     iteration #  5     ecut=    12.00 Ry     beta=0.30
     Davidson diagonalization with overlap
     ethr =  1.72E-07,  avg # of iterations =  1.7

     negative rho (up, down):  1.726E-08 0.000E+00

     total cpu time spent up to now is        3.1 secs

     total energy              =     -29.22294607 Ry
     Harris-Foulkes estimate   =     -29.22294454 Ry
     estimated scf accuracy    <       0.00000411 Ry

     iteration #  6     ecut=    12.00 Ry     beta=0.30
     Davidson diagonalization with overlap
     ethr =  1.96E-08,  avg # of iterations =  2.3

     total cpu time spent up to now is        3.2 secs

     total energy              =     -29.22294654 Ry
     Harris-Foulkes estimate   =     -29.22294649 Ry
     estimated scf accuracy    <       0.00000072 Ry

     iteration #  7     ecut=    12.00 Ry     beta=0.30
     Davidson diagonalization with overlap
     ethr =  3.41E-09,  avg # of iterations =  2.3

     total cpu time spent up to now is        3.2 secs

     total energy              =     -29.22294663 Ry
     Harris-Foulkes estimate   =     -29.22294679 Ry
     estimated scf accuracy    <       0.00000069 Ry

     iteration #  8     ecut=    12.00 Ry     beta=0.30
     Davidson diagonalization with overlap
     ethr =  3.29E-09,  avg # of iterations =  1.7

     total cpu time spent up to now is        3.2 secs

     End of self-consistent calculation

          k = 0.1250 0.1250 0.0000 (   822 PWs)   bands (ev):

    -7.2669  -6.6966  -5.8675  -4.6527  -3.1590  -1.4267   0.5907   1.8706
     4.5222   5.3263   5.8423   6.3341   6.5833   7.0901   7.5820

          k = 0.1250 0.3750 0.0000 (   847 PWs)   bands (ev):

    -4.9431  -4.3811  -3.5679  -2.3757  -0.9157  -0.4420   0.0784   0.8243
     0.8890   2.0406   2.7897   3.5108   3.9623   5.1909   6.6623

          k = 0.3750 0.3750 0.0000 (   860 PWs)   bands (ev):

    -2.6770  -2.1271  -1.3301  -0.1604   1.1379   1.2676   1.6501   2.3836
     2.5310   2.7503   3.3832   3.4920   3.9868   4.8876   5.0077

     the Fermi energy is     3.4422 ev

!    total energy              =     -29.22294671 Ry
     Harris-Foulkes estimate   =     -29.22294673 Ry
     estimated scf accuracy    <       0.00000002 Ry

     The total energy is the sum of the following terms:

     one-electron contribution =    -194.21386776 Ry
     hartree contribution      =     103.81410107 Ry
     xc contribution           =     -11.26519658 Ry
     ewald contribution        =      72.44543038 Ry
     smearing contrib. (-TS)   =      -0.00341382 Ry

     convergence has been achieved in   8 iterations

     Forces acting on atoms (Ry/au):

     atom    1 type  1   force =     0.00000000    0.00000000    0.00304779
     atom    2 type  1   force =     0.00000000    0.00000000    0.00118347
     atom    3 type  1   force =     0.00000000    0.00000000   -0.00226851
     atom    4 type  1   force =     0.00000000    0.00000000    0.00000000
     atom    5 type  1   force =     0.00000000    0.00000000    0.00226851
     atom    6 type  1   force =     0.00000000    0.00000000   -0.00118347
     atom    7 type  1   force =     0.00000000    0.00000000   -0.00304779

     Total force =     0.005628     Total SCF correction =     0.000196

     number of scf cycles    =   8
     number of bfgs steps    =   7

     energy   old            =     -29.2223670497 Ry
     energy   new            =     -29.2229467143 Ry

     CASE: energy  _new < energy  _old


     WARNING: bfgs curvature condition failed, Theta= 0.923
     new trust radius        =       0.1028268358 bohr
     new conv_thr            =       0.0000000305 Ry


ATOMIC_POSITIONS (alat)
Al       0.500000000   0.500000000  -2.060422737
Al       0.000000000   0.000000000  -1.378497094
Al       0.500000000   0.500000000  -0.688496335
Al       0.000000000   0.000000000   0.000000000
Al       0.500000000   0.500000000   0.688496335
Al       0.000000000   0.000000000   1.378497094
Al       0.500000000   0.500000000   2.060422737



     Writing output data file Al.save
     Check: negative starting charge=   -0.000292
     NEW-OLD atomic charge density approx. for the potential
     Check: negative starting charge=   -0.000292

     negative rho (up, down):  2.440E-04 0.000E+00

     total cpu time spent up to now is        3.3 secs

     per-process dynamical memory:     4.8 Mb

     Self-consistent Calculation

     iteration #  1     ecut=    12.00 Ry     beta=0.30
     Davidson diagonalization with overlap
     ethr =  1.00E-06,  avg # of iterations =  6.0

     negative rho (up, down):  1.352E-04 0.000E+00

     total cpu time spent up to now is        3.4 secs

     total energy              =     -29.22239809 Ry
     Harris-Foulkes estimate   =     -29.22348172 Ry
     estimated scf accuracy    <       0.00236363 Ry

     iteration #  2     ecut=    12.00 Ry     beta=0.30
     Davidson diagonalization with overlap
     ethr =  1.13E-05,  avg # of iterations =  3.3

     negative rho (up, down):  1.235E-04 0.000E+00

     total cpu time spent up to now is        3.4 secs

     total energy              =     -29.22106738 Ry
     Harris-Foulkes estimate   =     -29.22508255 Ry
     estimated scf accuracy    <       0.04161965 Ry

     iteration #  3     ecut=    12.00 Ry     beta=0.30
     Davidson diagonalization with overlap
     ethr =  1.13E-05,  avg # of iterations =  3.0

     negative rho (up, down):  9.637E-05 0.000E+00

     total cpu time spent up to now is        3.5 secs

     total energy              =     -29.22313399 Ry
     Harris-Foulkes estimate   =     -29.22342294 Ry
     estimated scf accuracy    <       0.00243108 Ry

     iteration #  4     ecut=    12.00 Ry     beta=0.30
     Davidson diagonalization with overlap
     ethr =  1.13E-05,  avg # of iterations =  1.0

     negative rho (up, down):  1.343E-05 0.000E+00

     total cpu time spent up to now is        3.5 secs

     total energy              =     -29.22327261 Ry
     Harris-Foulkes estimate   =     -29.22326825 Ry
     estimated scf accuracy    <       0.00003958 Ry

     iteration #  5     ecut=    12.00 Ry     beta=0.30
     Davidson diagonalization with overlap
     ethr =  1.88E-07,  avg # of iterations =  4.0

     negative rho (up, down):  5.684E-06 0.000E+00

     total cpu time spent up to now is        3.6 secs

     total energy              =     -29.22328215 Ry
     Harris-Foulkes estimate   =     -29.22328491 Ry
     estimated scf accuracy    <       0.00004822 Ry

     iteration #  6     ecut=    12.00 Ry     beta=0.30
     Davidson diagonalization with overlap
     ethr =  1.88E-07,  avg # of iterations =  1.0

     total cpu time spent up to now is        3.6 secs

     total energy              =     -29.22328255 Ry
     Harris-Foulkes estimate   =     -29.22328321 Ry
     estimated scf accuracy    <       0.00000839 Ry

     iteration #  7     ecut=    12.00 Ry     beta=0.30
     Davidson diagonalization with overlap
     ethr =  4.00E-08,  avg # of iterations =  2.7

     total cpu time spent up to now is        3.6 secs

     total energy              =     -29.22328332 Ry
     Harris-Foulkes estimate   =     -29.22328405 Ry
     estimated scf accuracy    <       0.00000482 Ry

     iteration #  8     ecut=    12.00 Ry     beta=0.30
     Davidson diagonalization with overlap
     ethr =  2.30E-08,  avg # of iterations =  2.0

     total cpu time spent up to now is        3.7 secs

     total energy              =     -29.22328378 Ry
     Harris-Foulkes estimate   =     -29.22328389 Ry
     estimated scf accuracy    <       0.00000103 Ry

     iteration #  9     ecut=    12.00 Ry     beta=0.30
     Davidson diagonalization with overlap
     ethr =  4.88E-09,  avg # of iterations =  1.3

     total cpu time spent up to now is        3.7 secs

     total energy              =     -29.22328382 Ry
     Harris-Foulkes estimate   =     -29.22328383 Ry
     estimated scf accuracy    <       0.00000005 Ry

     iteration # 10     ecut=    12.00 Ry     beta=0.30
     Davidson diagonalization with overlap
     ethr =  2.16E-10,  avg # of iterations =  3.0

     total cpu time spent up to now is        3.8 secs

     total energy              =     -29.22328383 Ry
     Harris-Foulkes estimate   =     -29.22328384 Ry
     estimated scf accuracy    <       0.00000004 Ry

     iteration # 11     ecut=    12.00 Ry     beta=0.30
     Davidson diagonalization with overlap
     ethr =  2.07E-10,  avg # of iterations =  1.0

     total cpu time spent up to now is        3.8 secs

     End of self-consistent calculation

          k = 0.1250 0.1250 0.0000 (   822 PWs)   bands (ev):

    -7.3439  -6.7908  -5.9194  -4.6863  -3.1785  -1.4080   0.6283   1.9121
     4.5880   5.2454   5.7396   6.3755   6.5244   7.0403   7.6131

          k = 0.1250 0.3750 0.0000 (   847 PWs)   bands (ev):

    -5.0200  -4.4756  -3.6207  -2.4111  -0.9391  -0.5195  -0.0177   0.8360
     0.8414   2.0028   2.8205   3.4920   3.9994   5.2080   6.7222

          k = 0.3750 0.3750 0.0000 (   860 PWs)   bands (ev):

    -2.7544  -2.2227  -1.3844  -0.1978   1.0589   1.2403   1.5502   2.3256
     2.4515   2.7027   3.3530   3.4500   3.9374   4.8533   5.0410

     the Fermi energy is     3.4243 ev

!    total energy              =     -29.22328382 Ry
     Harris-Foulkes estimate   =     -29.22328383 Ry
     estimated scf accuracy    <       0.00000001 Ry

     The total energy is the sum of the following terms:

     one-electron contribution =    -199.66962881 Ry
     hartree contribution      =     106.52579385 Ry
     xc contribution           =     -11.29289657 Ry
     ewald contribution        =      75.21722273 Ry
     smearing contrib. (-TS)   =      -0.00377502 Ry

     convergence has been achieved in  11 iterations

     Forces acting on atoms (Ry/au):

     atom    1 type  1   force =     0.00000000    0.00000000   -0.00045186
     atom    2 type  1   force =     0.00000000    0.00000000    0.00003453
     atom    3 type  1   force =     0.00000000    0.00000000    0.00017886
     atom    4 type  1   force =     0.00000000    0.00000000    0.00000000
     atom    5 type  1   force =     0.00000000    0.00000000   -0.00017886
     atom    6 type  1   force =     0.00000000    0.00000000   -0.00003453
     atom    7 type  1   force =     0.00000000    0.00000000    0.00045186

     Total force =     0.000689     Total SCF correction =     0.000220
     SCF correction compared to forces is large: reduce conv_thr to get better values

     number of scf cycles    =   9
     number of bfgs steps    =   8

     energy   old            =     -29.2229467143 Ry
     energy   new            =     -29.2232838187 Ry

     CASE: energy  _new < energy  _old

     new trust radius        =       0.0111180639 bohr
     new conv_thr            =       0.0000000100 Ry


ATOMIC_POSITIONS (alat)
Al       0.500000000   0.500000000  -2.062519180
Al       0.000000000   0.000000000  -1.379595874
Al       0.500000000   0.500000000  -0.688685593
Al       0.000000000   0.000000000   0.000000000
Al       0.500000000   0.500000000   0.688685593
Al       0.000000000   0.000000000   1.379595874
Al       0.500000000   0.500000000   2.062519180



     Writing output data file Al.save
     Check: negative starting charge=   -0.000292
     NEW-OLD atomic charge density approx. for the potential
     Check: negative starting charge=   -0.000293

     negative rho (up, down):  2.601E-06 0.000E+00

     total cpu time spent up to now is        3.8 secs

     per-process dynamical memory:     4.8 Mb

     Self-consistent Calculation

     iteration #  1     ecut=    12.00 Ry     beta=0.30
     Davidson diagonalization with overlap
     ethr =  1.00E-06,  avg # of iterations =  2.7

     negative rho (up, down):  7.871E-07 0.000E+00

     total cpu time spent up to now is        3.9 secs

     total energy              =     -29.22327291 Ry
     Harris-Foulkes estimate   =     -29.22329046 Ry
     estimated scf accuracy    <       0.00003731 Ry

     iteration #  2     ecut=    12.00 Ry     beta=0.30
     Davidson diagonalization with overlap
     ethr =  1.78E-07,  avg # of iterations =  3.0

     negative rho (up, down):  6.437E-07 0.000E+00

     total cpu time spent up to now is        3.9 secs

     total energy              =     -29.22324372 Ry
     Harris-Foulkes estimate   =     -29.22332904 Ry
     estimated scf accuracy    <       0.00097881 Ry

     iteration #  3     ecut=    12.00 Ry     beta=0.30
     Davidson diagonalization with overlap
     ethr =  1.78E-07,  avg # of iterations =  2.7

     negative rho (up, down):  2.827E-07 0.000E+00

     total cpu time spent up to now is        4.0 secs

     total energy              =     -29.22328731 Ry
     Harris-Foulkes estimate   =     -29.22328893 Ry
     estimated scf accuracy    <       0.00001185 Ry

     iteration #  4     ecut=    12.00 Ry     beta=0.30
     Davidson diagonalization with overlap
     ethr =  5.64E-08,  avg # of iterations =  1.3

     total cpu time spent up to now is        4.0 secs

     total energy              =     -29.22328820 Ry
     Harris-Foulkes estimate   =     -29.22328813 Ry
     estimated scf accuracy    <       0.00000050 Ry

     iteration #  5     ecut=    12.00 Ry     beta=0.30
     Davidson diagonalization with overlap
     ethr =  2.37E-09,  avg # of iterations =  2.7

     total cpu time spent up to now is        4.1 secs

     total energy              =     -29.22328829 Ry
     Harris-Foulkes estimate   =     -29.22328828 Ry
     estimated scf accuracy    <       0.00000029 Ry

     iteration #  6     ecut=    12.00 Ry     beta=0.30
     Davidson diagonalization with overlap
     ethr =  1.40E-09,  avg # of iterations =  1.0

     total cpu time spent up to now is        4.1 secs

     total energy              =     -29.22328829 Ry
     Harris-Foulkes estimate   =     -29.22328829 Ry
     estimated scf accuracy    <       0.00000005 Ry

     iteration #  7     ecut=    12.00 Ry     beta=0.30
     Davidson diagonalization with overlap
     ethr =  2.44E-10,  avg # of iterations =  2.3

     total cpu time spent up to now is        4.1 secs

     total energy              =     -29.22328830 Ry
     Harris-Foulkes estimate   =     -29.22328830 Ry
     estimated scf accuracy    <       0.00000003 Ry

     iteration #  8     ecut=    12.00 Ry     beta=0.30
     Davidson diagonalization with overlap
     ethr =  1.45E-10,  avg # of iterations =  1.7

     total cpu time spent up to now is        4.2 secs

     End of self-consistent calculation

          k = 0.1250 0.1250 0.0000 (   822 PWs)   bands (ev):

    -7.3358  -6.7809  -5.9129  -4.6824  -3.1769  -1.4101   0.6241   1.9074
     4.5811   5.2540   5.7505   6.3715   6.5318   7.0456   7.6099

          k = 0.1250 0.3750 0.0000 (   847 PWs)   bands (ev):

    -5.0118  -4.4656  -3.6141  -2.4070  -0.9371  -0.5113  -0.0076   0.8395
     0.8427   2.0073   2.8171   3.4935   3.9953   5.2060   6.7160

          k = 0.3750 0.3750 0.0000 (   860 PWs)   bands (ev):

    -2.7462  -2.2126  -1.3776  -0.1934   1.0673   1.2428   1.5608   2.3329
     2.4599   2.7082   3.3557   3.4550   3.9434   4.8563   5.0374

     the Fermi energy is     3.4261 ev

!    total energy              =     -29.22328830 Ry
     Harris-Foulkes estimate   =     -29.22328830 Ry
     estimated scf accuracy    <          3.8E-10 Ry

     The total energy is the sum of the following terms:

     one-electron contribution =    -199.09671525 Ry
     hartree contribution      =     106.24061770 Ry
     xc contribution           =     -11.28987473 Ry
     ewald contribution        =      74.92639446 Ry
     smearing contrib. (-TS)   =      -0.00371049 Ry

     convergence has been achieved in   8 iterations

     Forces acting on atoms (Ry/au):

     atom    1 type  1   force =     0.00000000    0.00000000    0.00000089
     atom    2 type  1   force =     0.00000000    0.00000000    0.00003026
     atom    3 type  1   force =     0.00000000    0.00000000   -0.00001892
     atom    4 type  1   force =     0.00000000    0.00000000    0.00000000
     atom    5 type  1   force =     0.00000000    0.00000000    0.00001892
     atom    6 type  1   force =     0.00000000    0.00000000   -0.00003026
     atom    7 type  1   force =     0.00000000    0.00000000   -0.00000089

     Total force =     0.000050     Total SCF correction =     0.000027
     SCF correction compared to forces is large: reduce conv_thr to get better values

     bfgs converged in  10 scf cycles and   9 bfgs steps
     (criteria: energy <  1.0E-04, force <  1.0E-03)

     End of BFGS Geometry Optimization

     Final energy   =     -29.2232883004 Ry
Begin final coordinates

ATOMIC_POSITIONS (alat)
Al       0.500000000   0.500000000  -2.062519180
Al       0.000000000   0.000000000  -1.379595874
Al       0.500000000   0.500000000  -0.688685593
Al       0.000000000   0.000000000   0.000000000
Al       0.500000000   0.500000000   0.688685593
Al       0.000000000   0.000000000   1.379595874
Al       0.500000000   0.500000000   2.062519180
End final coordinates



     Writing output data file Al.save
 
     init_run     :      0.04s CPU      0.04s WALL (       1 calls)
     electrons    :      3.53s CPU      3.63s WALL (      10 calls)
     update_pot   :      0.07s CPU      0.08s WALL (       9 calls)
     forces       :      0.06s CPU      0.06s WALL (      10 calls)

     Called by init_run:
     wfcinit      :      0.02s CPU      0.02s WALL (       1 calls)
     potinit      :      0.00s CPU      0.00s WALL (       1 calls)

     Called by electrons:
     c_bands      :      2.89s CPU      2.95s WALL (      83 calls)
     sum_band     :      0.47s CPU      0.48s WALL (      83 calls)
     v_of_rho     :      0.07s CPU      0.07s WALL (      93 calls)
     mix_rho      :      0.06s CPU      0.06s WALL (      83 calls)

     Called by c_bands:
     init_us_2    :      0.07s CPU      0.06s WALL (     531 calls)
     cegterg      :      2.77s CPU      2.82s WALL (     249 calls)

     Called by sum_band:

     Called by *egterg:
     h_psi        :      1.89s CPU      1.92s WALL (     869 calls)
     g_psi        :      0.02s CPU      0.03s WALL (     617 calls)
     cdiaghg      :      0.47s CPU      0.48s WALL (     839 calls)

     Called by h_psi:
     h_psi:pot    :      1.88s CPU      1.90s WALL (     869 calls)
     h_psi:calbec :      0.12s CPU      0.11s WALL (     869 calls)
     add_vuspsi   :      0.08s CPU      0.09s WALL (     869 calls)

     General routines
     calbec       :      0.14s CPU      0.12s WALL (     989 calls)
     fft          :      0.04s CPU      0.05s WALL (     391 calls)
     fftw         :      1.83s CPU      1.84s WALL (   22323 calls)
 
     Parallel routines
     fft_scatter  :      0.43s CPU      0.46s WALL (   22714 calls)
 
     PWSCF        :     4.10s CPU         4.23s WALL

 
   This run was terminated on:  16:10:20  18Aug2016            

=------------------------------------------------------------------------------=
   JOB DONE.
=------------------------------------------------------------------------------=
