
     Program PHONON v.5.4.0 (svn rev. 12620M) starts on 28Jul2016 at 11:50: 8 

     This program is part of the open-source Quantum ESPRESSO suite
     for quantum simulation of materials; please cite
         "P. Giannozzi et al., J. Phys.:Condens. Matter 21 395502 (2009);
          URL http://www.quantum-espresso.org", 
     in publications or presentations arising from this work. More details at
     http://www.quantum-espresso.org/quote
 
           HOST :    x86_64-pc-linux-gnu
           ARCH :    x86_64
             CC :    icc
            CPP :    cpp
            F90 :    ifort
            F77 :    ifort
         DFLAGS :    -D__INTEL -D__FFTW -D__MPI -D__PARA -D__HDF5
      BLAS LIBS :    -lmkl_intel_lp64  -lmkl_sequential -lmkl_core
    LAPACK LIBS :    
       FFT LIBS :    
      MASS LIBS :    

     Parallel version (MPI), running on     2 processors
     R & G space division:  proc/nbgrp/npool/nimage =       2

     Reading data from directory:
     /home/nvarini/espresso_hdf5/espresso/tempdir/1/alas.save

   Info: using nr1, nr2, nr3 values from input

   Info: using nr1, nr2, nr3 values from input

     IMPORTANT: XC functional enforced from input :
     Exchange-correlation      =  SLA  PZ   NOGX NOGC ( 1  1  0  0 0 0)
     Any further DFT definition will be discarded
     Please, verify this is what you really want

 
     Parallelization info
     --------------------
     sticks:   dense  smooth     PW     G-vecs:    dense   smooth      PW
     Min         120     120     42                 1221     1221     229
     Max         121     121     43                 1224     1224     230
     Sum         241     241     85                 2445     2445     459
 


     Dynamical matrices for ( 4, 4, 4)  uniform grid of q-points
     (   8q-points):
       N         xq(1)         xq(2)         xq(3) 
       1   0.000000000   0.000000000   0.000000000
       2  -0.250000000   0.250000000  -0.250000000
       3   0.500000000  -0.500000000   0.500000000
       4   0.000000000   0.500000000   0.000000000
       5   0.750000000  -0.250000000   0.750000000
       6   0.500000000   0.000000000   0.500000000
       7   0.000000000  -1.000000000   0.000000000
       8  -0.500000000  -1.000000000   0.000000000

     Calculation of q =    0.0000000   0.0000000   0.0000000

                                                                                

     bravais-lattice index     =            2
     lattice parameter (alat)  =      10.5000  a.u.
     unit-cell volume          =     289.4062 (a.u.)^3
     number of atoms/cell      =            2
     number of atomic types    =            2
     kinetic-energy cut-off    =      16.0000  Ry
     charge density cut-off    =      64.0000  Ry
     convergence threshold     =      1.0E-12
     beta                      =       0.7000
     number of iterations used =            4
     Exchange-correlation      =  SLA  PZ   NOGX NOGC ( 1  1  0  0 0 0)


     celldm(1)=   10.50000  celldm(2)=    0.00000  celldm(3)=    0.00000
     celldm(4)=    0.00000  celldm(5)=    0.00000  celldm(6)=    0.00000

     crystal axes: (cart. coord. in units of alat)
               a(1) = ( -0.5000  0.0000  0.5000 )  
               a(2) = (  0.0000  0.5000  0.5000 )  
               a(3) = ( -0.5000  0.5000  0.0000 )  

     reciprocal axes: (cart. coord. in units 2 pi/alat)
               b(1) = ( -1.0000 -1.0000  1.0000 )  
               b(2) = (  1.0000  1.0000  1.0000 )  
               b(3) = ( -1.0000  1.0000 -1.0000 )  


     Atoms inside the unit cell: 

     Cartesian axes

     site n.  atom      mass           positions (alat units)
        1     Al  26.9800   tau(    1) = (    0.00000    0.00000    0.00000  )
        2     As  74.9200   tau(    2) = (    0.25000    0.25000    0.25000  )

     Computing dynamical matrix for 
                    q = (   0.0000000   0.0000000   0.0000000 )
 
     25 Sym.Ops. (with q -> -q+G )


     G cutoff =  178.7306  (   1224 G-vectors)     FFT grid: ( 20, 20, 20)
     number of k points=     2

     PseudoPot. # 1 for Al read from file:
     /home/nvarini/espresso_hdf5/espresso/pseudo/Al.pz-vbc.UPF
     MD5 check sum: 614279c88ff8d45c90147292d03ed420
     Pseudo is Norm-conserving, Zval =  3.0
     Generated by new atomic code, or converted to UPF format
     Using radial grid of  171 points,  2 beta functions with: 
                l(1) =   0
                l(2) =   1

     PseudoPot. # 2 for As read from file:
     /home/nvarini/espresso_hdf5/espresso/pseudo/As.pz-bhs.UPF
     MD5 check sum: 451cd3365afcfc94d28b1934951c34a8
     Pseudo is Norm-conserving, Zval =  5.0
     Generated by new atomic code, or converted to UPF format
     Using radial grid of  525 points,  2 beta functions with: 
                l(1) =   0
                l(2) =   1

     Mode symmetry, T_d (-43m)  point group:


     Electric field:
     Dielectric constant
     Born effective charges in two ways 


     Atomic displacements:
     There are   2 irreducible representations

     Representation     1      3 modes -T_2  G_15 P_4  To be done

     Representation     2      3 modes -T_2  G_15 P_4  To be done



     Alpha used in Ewald sum =   0.7000
     PHONON       :     0.43s CPU         0.44s WALL


     Electric Fields Calculation

      iter #   1 total cpu time :     0.5 secs   av.it.:   1.0
      thresh= 1.000E-02 alpha_mix =  0.700 |ddv_scf|^2 =  0.000E+00

     End of electric fields calculation

          Dielectric constant in cartesian axis 

          (       1.000000000       0.000000000       0.000000000 )
          (       0.000000000       1.000000000       0.000000000 )
          (       0.000000000       0.000000000       1.000000000 )

          Effective charges (d Force / dE) in cartesian axis

           atom      1   Al 
      Ex  (        3.00000        0.00000        0.00000 )
      Ey  (        0.00000        3.00000        0.00000 )
      Ez  (        0.00000        0.00000        3.00000 )
           atom      2   As 
      Ex  (        5.00000        0.00000        0.00000 )
      Ey  (        0.00000        5.00000        0.00000 )
      Ez  (        0.00000        0.00000        5.00000 )


     Representation #  1 modes #   1  2  3

     Self-consistent Calculation

      iter #   1 total cpu time :     0.5 secs   av.it.:   1.0
      thresh= 1.000E-02 alpha_mix =  0.700 |ddv_scf|^2 =  0.000E+00

     End of self-consistent calculation

     Convergence has been achieved 


     Representation #  2 modes #   4  5  6

     Self-consistent Calculation

      iter #   1 total cpu time :     0.6 secs   av.it.:   1.0
      thresh= 1.000E-02 alpha_mix =  0.700 |ddv_scf|^2 =  0.000E+00

     End of self-consistent calculation

     Convergence has been achieved 
 
     Number of q in the star =    1
     List of q in the star:
          1   0.000000000   0.000000000   0.000000000

          Dielectric constant in cartesian axis 

          (       1.000000000       0.000000000       0.000000000 )
          (       0.000000000       1.000000000       0.000000000 )
          (       0.000000000       0.000000000       1.000000000 )

          Effective charges (d Force / dE) in cartesian axis

           atom      1   Al 
      Ex  (        3.00000        0.00000        0.00000 )
      Ey  (        0.00000        3.00000        0.00000 )
      Ez  (        0.00000        0.00000        3.00000 )
           atom      2   As 
      Ex  (        5.00000        0.00000        0.00000 )
      Ey  (        0.00000        5.00000        0.00000 )
      Ez  (        0.00000        0.00000        5.00000 )

          Effective charges (d P / du) in cartesian axis 

           atom      1   Al 
      Px  (        3.00000        0.00000        0.00000 )
      Py  (        0.00000        3.00000        0.00000 )
      Pz  (        0.00000        0.00000        3.00000 )
           atom      2   As 
      Px  (        5.00000        0.00000        0.00000 )
      Py  (        0.00000        5.00000        0.00000 )
      Pz  (        0.00000        0.00000        5.00000 )

     Diagonalizing the dynamical matrix

     q = (    0.000000000   0.000000000   0.000000000 ) 

 **************************************************************************
     freq (    1) =       5.890956 [THz] =     196.501155 [cm-1]
     freq (    2) =       5.890956 [THz] =     196.501155 [cm-1]
     freq (    3) =       5.890956 [THz] =     196.501155 [cm-1]
     freq (    4) =      22.508412 [THz] =     750.799823 [cm-1]
     freq (    5) =      22.508412 [THz] =     750.799823 [cm-1]
     freq (    6) =      22.508412 [THz] =     750.799823 [cm-1]
 **************************************************************************

     Mode symmetry, T_d (-43m)  point group:

     freq (  1 -  3) =        196.5  [cm-1]   --> T_2  G_15 P_4   I+R
     freq (  4 -  6) =        750.8  [cm-1]   --> T_2  G_15 P_4   I+R
 
     PHONON       :     0.55s CPU         0.56s WALL

     INITIALIZATION: 
     phq_setup    :      0.01s CPU      0.01s WALL (       1 calls)
     phq_init     :      0.01s CPU      0.01s WALL (       1 calls)
 
     phq_init     :      0.01s CPU      0.01s WALL (       1 calls)
     init_vloc    :      0.00s CPU      0.00s WALL (       1 calls)
     init_us_1    :      0.01s CPU      0.01s WALL (       1 calls)
 
     DIELECTRIC CONSTANT AND EFFECTIVE CHARGES:
     solve_e      :      0.03s CPU      0.03s WALL (       1 calls)
     dielec       :      0.00s CPU      0.00s WALL (       1 calls)
     zstar_eu     :      0.01s CPU      0.01s WALL (       1 calls)
 
     DYNAMICAL MATRIX:
     dynmat0      :      0.00s CPU      0.00s WALL (       1 calls)
     phqscf       :      0.07s CPU      0.08s WALL (       1 calls)
     dynmatrix    :      0.00s CPU      0.00s WALL (       1 calls)
 
     phqscf       :      0.07s CPU      0.08s WALL (       1 calls)
     solve_linter :      0.07s CPU      0.07s WALL (       2 calls)
     drhodv       :      0.00s CPU      0.00s WALL (       2 calls)
     add_zstar_ue :      0.00s CPU      0.00s WALL (       2 calls)
 
     dynmat0      :      0.00s CPU      0.00s WALL (       1 calls)
     dynmat_us    :      0.00s CPU      0.00s WALL (       1 calls)
     d2ionq       :      0.00s CPU      0.00s WALL (       1 calls)
 
     dynmat_us    :      0.00s CPU      0.00s WALL (       1 calls)
 
     phqscf       :      0.07s CPU      0.08s WALL (       1 calls)
     solve_linter :      0.07s CPU      0.07s WALL (       2 calls)
 
     solve_linter :      0.07s CPU      0.07s WALL (       2 calls)
     dvqpsi_us    :      0.01s CPU      0.01s WALL (      24 calls)
     ortho        :      0.00s CPU      0.00s WALL (      24 calls)
     cgsolve      :      0.01s CPU      0.01s WALL (      24 calls)
     incdrhoscf   :      0.01s CPU      0.01s WALL (      18 calls)
     dv_of_drho   :      0.00s CPU      0.00s WALL (       9 calls)
     mix_pot      :      0.00s CPU      0.00s WALL (       3 calls)
     psymdvscf    :      0.04s CPU      0.04s WALL (       2 calls)
 
     dvqpsi_us    :      0.01s CPU      0.01s WALL (      24 calls)
     dvqpsi_us_on :      0.00s CPU      0.00s WALL (      24 calls)
 
     cgsolve      :      0.01s CPU      0.01s WALL (      24 calls)
     ch_psi       :      0.01s CPU      0.01s WALL (      24 calls)
 
     ch_psi       :      0.01s CPU      0.01s WALL (      24 calls)
     last         :      0.00s CPU      0.00s WALL (      24 calls)
 
     add_vuspsi   :      0.00s CPU      0.00s WALL (      24 calls)
 
     incdrhoscf   :      0.01s CPU      0.01s WALL (      18 calls)
 
 
      General routines
     calbec       :      0.00s CPU      0.00s WALL (     122 calls)
     fft          :      0.01s CPU      0.01s WALL (      31 calls)
     ffts         :      0.00s CPU      0.00s WALL (      36 calls)
     fftw         :      0.02s CPU      0.03s WALL (     528 calls)
     davcio       :      0.00s CPU      0.00s WALL (     158 calls)
     write_rec    :      0.01s CPU      0.01s WALL (       5 calls)
 
 
     PHONON       :     0.55s CPU         0.56s WALL

 
   This run was terminated on:  11:50: 8  28Jul2016            

=------------------------------------------------------------------------------=
   JOB DONE.
=------------------------------------------------------------------------------=
