
     Program PHONON v.5.4.0 (svn rev. 12650M) starts on  3Aug2016 at 11:16:35 

     This program is part of the open-source Quantum ESPRESSO suite
     for quantum simulation of materials; please cite
         "P. Giannozzi et al., J. Phys.:Condens. Matter 21 395502 (2009);
          URL http://www.quantum-espresso.org", 
     in publications or presentations arising from this work. More details at
     http://www.quantum-espresso.org/quote
 
           HOST :    x86_64-pc-linux-gnu
           ARCH :    x86_64
             CC :    icc
            CPP :    cpp
            F90 :    ifort
            F77 :    ifort
         DFLAGS :    -D__INTEL -D__FFTW -D__MPI -D__PARA -D__HDF5
      BLAS LIBS :    -lmkl_intel_lp64  -lmkl_sequential -lmkl_core
    LAPACK LIBS :    
       FFT LIBS :    
      MASS LIBS :    

     Parallel version (MPI), running on     2 processors
     R & G space division:  proc/nbgrp/npool/nimage =       2

     Reading data from directory:
     /home/nvarini/espresso_hdf5/espresso/tempdir/4/alas.save

   Info: using nr1, nr2, nr3 values from input

   Info: using nr1, nr2, nr3 values from input

     IMPORTANT: XC functional enforced from input :
     Exchange-correlation      =  SLA  PZ   NOGX NOGC ( 1  1  0  0 0 0)
     Any further DFT definition will be discarded
     Please, verify this is what you really want

 
     Parallelization info
     --------------------
     sticks:   dense  smooth     PW     G-vecs:    dense   smooth      PW
     Min         120     120     42                 1221     1221     229
     Max         121     121     43                 1224     1224     230
     Sum         241     241     85                 2445     2445     459
 


     Dynamical matrices for ( 4, 4, 4)  uniform grid of q-points
     (   8q-points):
       N         xq(1)         xq(2)         xq(3) 
       1   0.000000000   0.000000000   0.000000000
       2  -0.250000000   0.250000000  -0.250000000
       3   0.500000000  -0.500000000   0.500000000
       4   0.000000000   0.500000000   0.000000000
       5   0.750000000  -0.250000000   0.750000000
       6   0.500000000   0.000000000   0.500000000
       7   0.000000000  -1.000000000   0.000000000
       8  -0.500000000  -1.000000000   0.000000000

     Calculation of q =    0.0000000   0.5000000   0.0000000
 
     Parallelization info
     --------------------
     sticks:   dense  smooth     PW     G-vecs:    dense   smooth      PW
     Min         120     120     42                 1221     1221     264
     Max         121     121     43                 1224     1224     267
     Sum         241     241     85                 2445     2445     531
 


     bravais-lattice index     =            2
     lattice parameter (alat)  =      10.5000  a.u.
     unit-cell volume          =     289.4062 (a.u.)^3
     number of atoms/cell      =            2
     number of atomic types    =            2
     number of electrons       =         8.00
     number of Kohn-Sham states=            4
     kinetic-energy cutoff     =      16.0000  Ry
     charge density cutoff     =      64.0000  Ry
     Exchange-correlation      =  SLA  PZ   NOGX NOGC ( 1  1  0  0 0 0)

     celldm(1)=  10.500000  celldm(2)=   0.000000  celldm(3)=   0.000000
     celldm(4)=   0.000000  celldm(5)=   0.000000  celldm(6)=   0.000000

     crystal axes: (cart. coord. in units of alat)
               a(1) = (  -0.500000   0.000000   0.500000 )  
               a(2) = (   0.000000   0.500000   0.500000 )  
               a(3) = (  -0.500000   0.500000   0.000000 )  

     reciprocal axes: (cart. coord. in units 2 pi/alat)
               b(1) = ( -1.000000 -1.000000  1.000000 )  
               b(2) = (  1.000000  1.000000  1.000000 )  
               b(3) = ( -1.000000  1.000000 -1.000000 )  


     PseudoPot. # 1 for Al read from file:
     /home/nvarini/espresso_hdf5/espresso/pseudo/Al.pz-vbc.UPF
     MD5 check sum: 614279c88ff8d45c90147292d03ed420
     Pseudo is Norm-conserving, Zval =  3.0
     Generated by new atomic code, or converted to UPF format
     Using radial grid of  171 points,  2 beta functions with: 
                l(1) =   0
                l(2) =   1

     PseudoPot. # 2 for As read from file:
     /home/nvarini/espresso_hdf5/espresso/pseudo/As.pz-bhs.UPF
     MD5 check sum: 451cd3365afcfc94d28b1934951c34a8
     Pseudo is Norm-conserving, Zval =  5.0
     Generated by new atomic code, or converted to UPF format
     Using radial grid of  525 points,  2 beta functions with: 
                l(1) =   0
                l(2) =   1

     atomic species   valence    mass     pseudopotential
        Al             3.00    26.98000     Al( 1.00)
        As             5.00    74.92000     As( 1.00)

     24 Sym. Ops. (no inversion) found



   Cartesian axes

     site n.     atom                  positions (alat units)
         1           Al  tau(   1) = (   0.0000000   0.0000000   0.0000000  )
         2           As  tau(   2) = (   0.2500000   0.2500000   0.2500000  )

     number of k points=    24
                       cart. coord. in units 2pi/alat
        k(    1) = (   0.2500000   0.2500000   0.2500000), wk =   0.1250000
        k(    2) = (   0.2500000   0.7500000   0.2500000), wk =   0.0000000
        k(    3) = (   0.2500000   0.2500000   0.7500000), wk =   0.2500000
        k(    4) = (   0.2500000   0.7500000   0.7500000), wk =   0.0000000
        k(    5) = (  -0.2500000  -0.2500000   0.2500000), wk =   0.1250000
        k(    6) = (  -0.2500000   0.2500000   0.2500000), wk =   0.0000000
        k(    7) = (  -0.2500000  -0.2500000  -0.2500000), wk =   0.1250000
        k(    8) = (  -0.2500000   0.2500000  -0.2500000), wk =   0.0000000
        k(    9) = (   0.2500000   0.2500000  -0.2500000), wk =   0.1250000
        k(   10) = (   0.2500000   0.7500000  -0.2500000), wk =   0.0000000
        k(   11) = (  -0.2500000  -0.2500000   0.7500000), wk =   0.2500000
        k(   12) = (  -0.2500000   0.2500000   0.7500000), wk =   0.0000000
        k(   13) = (   0.2500000  -0.7500000  -0.2500000), wk =   0.1250000
        k(   14) = (   0.2500000  -0.2500000  -0.2500000), wk =   0.0000000
        k(   15) = (   0.2500000   0.7500000   0.2500000), wk =   0.1250000
        k(   16) = (   0.2500000   1.2500000   0.2500000), wk =   0.0000000
        k(   17) = (  -0.2500000  -0.2500000  -0.7500000), wk =   0.2500000
        k(   18) = (  -0.2500000   0.2500000  -0.7500000), wk =   0.0000000
        k(   19) = (   0.2500000   0.2500000  -0.7500000), wk =   0.2500000
        k(   20) = (   0.2500000   0.7500000  -0.7500000), wk =   0.0000000
        k(   21) = (  -0.2500000   0.7500000   0.2500000), wk =   0.1250000
        k(   22) = (  -0.2500000   1.2500000   0.2500000), wk =   0.0000000
        k(   23) = (  -0.2500000  -0.7500000  -0.2500000), wk =   0.1250000
        k(   24) = (  -0.2500000  -0.2500000  -0.2500000), wk =   0.0000000

     Dense  grid:     2445 G-vectors     FFT dimensions: (  20,  20,  20)

     Largest allocated arrays     est. size (Mb)     dimensions
        Kohn-Sham Wavefunctions         0.01 Mb     (     166,    4)
        NL pseudopotentials             0.02 Mb     (     166,    8)
        Each V/rho on FFT grid          0.06 Mb     (    4000)
        Each G-vector array             0.01 Mb     (    1224)
        G-vector shells                 0.00 Mb     (      61)
     Largest temporary arrays     est. size (Mb)     dimensions
        Auxiliary wavefunctions         0.04 Mb     (     166,   16)
        Each subspace H/S matrix        0.00 Mb     (      16,   16)
        Each <psi_i|beta_j> matrix      0.00 Mb     (       8,    4)

     The potential is recalculated from file :
     /home/nvarini/espresso_hdf5/espresso/tempdir/4/_ph0/alas.save/charge-density.hdf5

     Starting wfc are    8 atomic wfcs

     Band Structure Calculation
     Davidson diagonalization with overlap

     ethr =  1.25E-10,  avg # of iterations = 11.7

     total cpu time spent up to now is        0.2 secs

     End of band structure calculation

          k = 0.2500 0.2500 0.2500 (   311 PWs)   bands (ev):

    -6.3575   1.7035   4.6970   4.6970

          k = 0.2500 0.7500 0.2500 (   311 PWs)   bands (ev):

    -5.1819  -0.0415   2.3125   3.5086

          k = 0.2500 0.2500 0.7500 (   311 PWs)   bands (ev):

    -5.1819  -0.0415   2.3125   3.5086

          k = 0.2500 0.7500 0.7500 (   311 PWs)   bands (ev):

    -5.1819  -0.0415   2.3125   3.5086

          k =-0.2500-0.2500 0.2500 (   311 PWs)   bands (ev):

    -6.3575   1.7035   4.6970   4.6970

          k =-0.2500 0.2500 0.2500 (   311 PWs)   bands (ev):

    -6.3575   1.7035   4.6970   4.6970

          k =-0.2500-0.2500-0.2500 (   311 PWs)   bands (ev):

    -6.3575   1.7035   4.6970   4.6970

          k =-0.2500 0.2500-0.2500 (   311 PWs)   bands (ev):

    -6.3575   1.7035   4.6970   4.6970

          k = 0.2500 0.2500-0.2500 (   311 PWs)   bands (ev):

    -6.3575   1.7035   4.6970   4.6970

          k = 0.2500 0.7500-0.2500 (   311 PWs)   bands (ev):

    -5.1819  -0.0415   2.3125   3.5086

          k =-0.2500-0.2500 0.7500 (   311 PWs)   bands (ev):

    -5.1819  -0.0415   2.3125   3.5086

          k =-0.2500 0.2500 0.7500 (   311 PWs)   bands (ev):

    -5.1819  -0.0415   2.3125   3.5086

          k = 0.2500-0.7500-0.2500 (   311 PWs)   bands (ev):

    -5.1819  -0.0415   2.3125   3.5086

          k = 0.2500-0.2500-0.2500 (   311 PWs)   bands (ev):

    -6.3575   1.7035   4.6970   4.6970

          k = 0.2500 0.7500 0.2500 (   311 PWs)   bands (ev):

    -5.1819  -0.0415   2.3125   3.5086

          k = 0.2500 1.2500 0.2500 (   311 PWs)   bands (ev):

    -5.1819  -0.0415   2.3125   3.5086

          k =-0.2500-0.2500-0.7500 (   311 PWs)   bands (ev):

    -5.1819  -0.0415   2.3125   3.5086

          k =-0.2500 0.2500-0.7500 (   311 PWs)   bands (ev):

    -5.1819  -0.0415   2.3125   3.5086

          k = 0.2500 0.2500-0.7500 (   311 PWs)   bands (ev):

    -5.1819  -0.0415   2.3125   3.5086

          k = 0.2500 0.7500-0.7500 (   311 PWs)   bands (ev):

    -5.1819  -0.0415   2.3125   3.5086

          k =-0.2500 0.7500 0.2500 (   311 PWs)   bands (ev):

    -5.1819  -0.0415   2.3125   3.5086

          k =-0.2500 1.2500 0.2500 (   311 PWs)   bands (ev):

    -5.1819  -0.0415   2.3125   3.5086

          k =-0.2500-0.7500-0.2500 (   311 PWs)   bands (ev):

    -5.1819  -0.0415   2.3125   3.5086

          k =-0.2500-0.2500-0.2500 (   311 PWs)   bands (ev):

    -6.3575   1.7035   4.6970   4.6970

     highest occupied level (ev):     4.6970

     Writing output data file alas.save

                                                                                

     bravais-lattice index     =            2
     lattice parameter (alat)  =      10.5000  a.u.
     unit-cell volume          =     289.4062 (a.u.)^3
     number of atoms/cell      =            2
     number of atomic types    =            2
     kinetic-energy cut-off    =      16.0000  Ry
     charge density cut-off    =      64.0000  Ry
     convergence threshold     =      1.0E-12
     beta                      =       0.7000
     number of iterations used =            4
     Exchange-correlation      =  SLA  PZ   NOGX NOGC ( 1  1  0  0 0 0)


     celldm(1)=   10.50000  celldm(2)=    0.00000  celldm(3)=    0.00000
     celldm(4)=    0.00000  celldm(5)=    0.00000  celldm(6)=    0.00000

     crystal axes: (cart. coord. in units of alat)
               a(1) = ( -0.5000  0.0000  0.5000 )  
               a(2) = (  0.0000  0.5000  0.5000 )  
               a(3) = ( -0.5000  0.5000  0.0000 )  

     reciprocal axes: (cart. coord. in units 2 pi/alat)
               b(1) = ( -1.0000 -1.0000  1.0000 )  
               b(2) = (  1.0000  1.0000  1.0000 )  
               b(3) = ( -1.0000  1.0000 -1.0000 )  


     Atoms inside the unit cell: 

     Cartesian axes

     site n.  atom      mass           positions (alat units)
        1     Al  26.9800   tau(    1) = (    0.00000    0.00000    0.00000  )
        2     As  74.9200   tau(    2) = (    0.25000    0.25000    0.25000  )

     Computing dynamical matrix for 
                    q = (   0.0000000   0.5000000   0.0000000 )
 
      4 Sym.Ops. (no q -> -q+G )


     G cutoff =  178.7306  (   1224 G-vectors)     FFT grid: ( 20, 20, 20)
     number of k points=    24

     PseudoPot. # 1 for Al read from file:
     /home/nvarini/espresso_hdf5/espresso/pseudo/Al.pz-vbc.UPF
     MD5 check sum: 614279c88ff8d45c90147292d03ed420
     Pseudo is Norm-conserving, Zval =  3.0
     Generated by new atomic code, or converted to UPF format
     Using radial grid of  171 points,  2 beta functions with: 
                l(1) =   0
                l(2) =   1

     PseudoPot. # 2 for As read from file:
     /home/nvarini/espresso_hdf5/espresso/pseudo/As.pz-bhs.UPF
     MD5 check sum: 451cd3365afcfc94d28b1934951c34a8
     Pseudo is Norm-conserving, Zval =  5.0
     Generated by new atomic code, or converted to UPF format
     Using radial grid of  525 points,  2 beta functions with: 
                l(1) =   0
                l(2) =   1

     Mode symmetry, C_2v (mm2)  point group:


     Atomic displacements:
     There are   6 irreducible representations

     Representation     1      1 modes -A_1  D_1  S_1  To be done

     Representation     2      1 modes -A_1  D_1  S_1  To be done

     Representation     3      1 modes -B_1  D_3  S_3  To be done

     Representation     4      1 modes -B_1  D_3  S_3  To be done

     Representation     5      1 modes -B_2  D_4  S_4  To be done

     Representation     6      1 modes -B_2  D_4  S_4  To be done



     Alpha used in Ewald sum =   0.7000
     PHONON       :     0.75s CPU         0.78s WALL



     Representation #  1 mode #   1

     Self-consistent Calculation

      iter #   1 total cpu time :     0.9 secs   av.it.:   6.5
      thresh= 1.000E-02 alpha_mix =  0.700 |ddv_scf|^2 =  1.920E-03

      iter #   2 total cpu time :     0.9 secs   av.it.:   8.0
      thresh= 4.381E-03 alpha_mix =  0.700 |ddv_scf|^2 =  1.597E-02

      iter #   3 total cpu time :     1.0 secs   av.it.:   7.2
      thresh= 1.000E-02 alpha_mix =  0.700 |ddv_scf|^2 =  2.119E-06

      iter #   4 total cpu time :     1.1 secs   av.it.:   8.3
      thresh= 1.456E-04 alpha_mix =  0.700 |ddv_scf|^2 =  2.556E-08

      iter #   5 total cpu time :     1.2 secs   av.it.:   8.8
      thresh= 1.599E-05 alpha_mix =  0.700 |ddv_scf|^2 =  7.317E-11

      iter #   6 total cpu time :     1.2 secs   av.it.:   8.2
      thresh= 8.554E-07 alpha_mix =  0.700 |ddv_scf|^2 =  3.893E-11

      iter #   7 total cpu time :     1.3 secs   av.it.:   7.5
      thresh= 6.239E-07 alpha_mix =  0.700 |ddv_scf|^2 =  4.403E-11

      iter #   8 total cpu time :     1.4 secs   av.it.:   7.2
      thresh= 6.635E-07 alpha_mix =  0.700 |ddv_scf|^2 =  2.508E-15

     End of self-consistent calculation

     Convergence has been achieved 


     Representation #  2 mode #   2

     Self-consistent Calculation

      iter #   1 total cpu time :     1.5 secs   av.it.:   5.7
      thresh= 1.000E-02 alpha_mix =  0.700 |ddv_scf|^2 =  3.751E-04

      iter #   2 total cpu time :     1.6 secs   av.it.:   7.9
      thresh= 1.937E-03 alpha_mix =  0.700 |ddv_scf|^2 =  2.908E-03

      iter #   3 total cpu time :     1.7 secs   av.it.:   6.8
      thresh= 5.393E-03 alpha_mix =  0.700 |ddv_scf|^2 =  5.664E-07

      iter #   4 total cpu time :     1.8 secs   av.it.:   7.8
      thresh= 7.526E-05 alpha_mix =  0.700 |ddv_scf|^2 =  5.670E-09

      iter #   5 total cpu time :     1.8 secs   av.it.:   8.8
      thresh= 7.530E-06 alpha_mix =  0.700 |ddv_scf|^2 =  7.443E-11

      iter #   6 total cpu time :     1.9 secs   av.it.:   8.2
      thresh= 8.628E-07 alpha_mix =  0.700 |ddv_scf|^2 =  2.320E-10

      iter #   7 total cpu time :     2.0 secs   av.it.:   7.2
      thresh= 1.523E-06 alpha_mix =  0.700 |ddv_scf|^2 =  1.449E-11

      iter #   8 total cpu time :     2.1 secs   av.it.:   7.3
      thresh= 3.806E-07 alpha_mix =  0.700 |ddv_scf|^2 =  2.841E-14

     End of self-consistent calculation

     Convergence has been achieved 


     Representation #  3 mode #   3

     Self-consistent Calculation

      iter #   1 total cpu time :     2.1 secs   av.it.:   4.9
      thresh= 1.000E-02 alpha_mix =  0.700 |ddv_scf|^2 =  1.095E-06

      iter #   2 total cpu time :     2.2 secs   av.it.:   8.4
      thresh= 1.046E-04 alpha_mix =  0.700 |ddv_scf|^2 =  1.263E-07

      iter #   3 total cpu time :     2.3 secs   av.it.:   8.2
      thresh= 3.554E-05 alpha_mix =  0.700 |ddv_scf|^2 =  6.592E-10

      iter #   4 total cpu time :     2.4 secs   av.it.:   8.0
      thresh= 2.568E-06 alpha_mix =  0.700 |ddv_scf|^2 =  2.110E-11

      iter #   5 total cpu time :     2.4 secs   av.it.:   7.8
      thresh= 4.594E-07 alpha_mix =  0.700 |ddv_scf|^2 =  3.768E-15

     End of self-consistent calculation

     Convergence has been achieved 


     Representation #  4 mode #   4

     Self-consistent Calculation

      iter #   1 total cpu time :     2.5 secs   av.it.:   5.8
      thresh= 1.000E-02 alpha_mix =  0.700 |ddv_scf|^2 =  8.767E-06

      iter #   2 total cpu time :     2.6 secs   av.it.:   8.4
      thresh= 2.961E-04 alpha_mix =  0.700 |ddv_scf|^2 =  1.180E-06

      iter #   3 total cpu time :     2.7 secs   av.it.:   8.1
      thresh= 1.086E-04 alpha_mix =  0.700 |ddv_scf|^2 =  3.847E-10

      iter #   4 total cpu time :     2.8 secs   av.it.:   8.0
      thresh= 1.961E-06 alpha_mix =  0.700 |ddv_scf|^2 =  1.530E-11

      iter #   5 total cpu time :     2.8 secs   av.it.:   8.2
      thresh= 3.912E-07 alpha_mix =  0.700 |ddv_scf|^2 =  6.681E-14

     End of self-consistent calculation

     Convergence has been achieved 


     Representation #  5 mode #   5

     Self-consistent Calculation

      iter #   1 total cpu time :     2.9 secs   av.it.:   5.8
      thresh= 1.000E-02 alpha_mix =  0.700 |ddv_scf|^2 =  8.766E-06

      iter #   2 total cpu time :     3.0 secs   av.it.:   8.4
      thresh= 2.961E-04 alpha_mix =  0.700 |ddv_scf|^2 =  1.179E-06

      iter #   3 total cpu time :     3.1 secs   av.it.:   8.2
      thresh= 1.086E-04 alpha_mix =  0.700 |ddv_scf|^2 =  3.852E-10

      iter #   4 total cpu time :     3.1 secs   av.it.:   8.0
      thresh= 1.963E-06 alpha_mix =  0.700 |ddv_scf|^2 =  1.531E-11

      iter #   5 total cpu time :     3.2 secs   av.it.:   8.2
      thresh= 3.913E-07 alpha_mix =  0.700 |ddv_scf|^2 =  6.693E-14

     End of self-consistent calculation

     Convergence has been achieved 


     Representation #  6 mode #   6

     Self-consistent Calculation

      iter #   1 total cpu time :     3.3 secs   av.it.:   4.9
      thresh= 1.000E-02 alpha_mix =  0.700 |ddv_scf|^2 =  1.095E-06

      iter #   2 total cpu time :     3.4 secs   av.it.:   8.4
      thresh= 1.046E-04 alpha_mix =  0.700 |ddv_scf|^2 =  1.262E-07

      iter #   3 total cpu time :     3.5 secs   av.it.:   8.3
      thresh= 3.553E-05 alpha_mix =  0.700 |ddv_scf|^2 =  6.605E-10

      iter #   4 total cpu time :     3.5 secs   av.it.:   7.9
      thresh= 2.570E-06 alpha_mix =  0.700 |ddv_scf|^2 =  2.112E-11

      iter #   5 total cpu time :     3.6 secs   av.it.:   7.9
      thresh= 4.595E-07 alpha_mix =  0.700 |ddv_scf|^2 =  3.788E-15

     End of self-consistent calculation

     Convergence has been achieved 
 
     Number of q in the star =    6
     List of q in the star:
          1   0.000000000   0.500000000   0.000000000
          2   0.000000000  -0.500000000   0.000000000
          3   0.000000000   0.000000000   0.500000000
          4   0.000000000   0.000000000  -0.500000000
          5   0.500000000   0.000000000   0.000000000
          6  -0.500000000   0.000000000   0.000000000

     Diagonalizing the dynamical matrix

     q = (    0.000000000   0.500000000   0.000000000 ) 

 **************************************************************************
     freq (    1) =       2.421154 [THz] =      80.761012 [cm-1]
     freq (    2) =       2.421154 [THz] =      80.761012 [cm-1]
     freq (    3) =       4.606581 [THz] =     153.659005 [cm-1]
     freq (    4) =      10.666709 [THz] =     355.803098 [cm-1]
     freq (    5) =      10.666709 [THz] =     355.803098 [cm-1]
     freq (    6) =      12.371385 [THz] =     412.664970 [cm-1]
 **************************************************************************

     Mode symmetry, C_2v (mm2)  point group:

     freq (  1 -  1) =         80.8  [cm-1]   --> B_1  D_3  S_3      
     freq (  2 -  2) =         80.8  [cm-1]   --> B_2  D_4  S_4      
     freq (  3 -  3) =        153.7  [cm-1]   --> A_1  D_1  S_1      
     freq (  4 -  4) =        355.8  [cm-1]   --> B_1  D_3  S_3      
     freq (  5 -  5) =        355.8  [cm-1]   --> B_2  D_4  S_4      
     freq (  6 -  6) =        412.7  [cm-1]   --> A_1  D_1  S_1      
 
     init_run     :      0.02s CPU      0.02s WALL (       1 calls)
     electrons    :      0.21s CPU      0.22s WALL (       1 calls)

     Called by init_run:
     wfcinit      :      0.00s CPU      0.00s WALL (       1 calls)
     potinit      :      0.00s CPU      0.00s WALL (       1 calls)

     Called by electrons:
     c_bands      :      0.21s CPU      0.22s WALL (       1 calls)
     v_of_rho     :      0.00s CPU      0.00s WALL (       2 calls)

     Called by c_bands:
     init_us_2    :      0.01s CPU      0.03s WALL (     552 calls)
     cegterg      :      0.16s CPU      0.17s WALL (      24 calls)

     Called by sum_band:

     Called by *egterg:
     h_psi        :      1.61s CPU      1.70s WALL (    4219 calls)
     g_psi        :      0.00s CPU      0.00s WALL (     280 calls)
     cdiaghg      :      0.03s CPU      0.03s WALL (     304 calls)

     Called by h_psi:
     add_vuspsi   :      0.03s CPU      0.05s WALL (    4219 calls)

     General routines
     calbec       :      0.14s CPU      0.14s WALL (    8518 calls)
     fft          :      0.01s CPU      0.01s WALL (     115 calls)
     ffts         :      0.01s CPU      0.01s WALL (     108 calls)
     fftw         :      1.64s CPU      1.69s WALL (   36712 calls)
     davcio       :      0.02s CPU      0.09s WALL (    1550 calls)
 
     Parallel routines
     fft_scatter  :      0.42s CPU      0.44s WALL (   36935 calls)
 
     PHONON       :     3.34s CPU         3.62s WALL

     INITIALIZATION: 
     phq_setup    :      0.01s CPU      0.01s WALL (       1 calls)
     phq_init     :      0.02s CPU      0.03s WALL (       1 calls)
 
     phq_init     :      0.02s CPU      0.03s WALL (       1 calls)
     init_vloc    :      0.00s CPU      0.00s WALL (       2 calls)
     init_us_1    :      0.02s CPU      0.02s WALL (       2 calls)
 
     DYNAMICAL MATRIX:
     dynmat0      :      0.01s CPU      0.01s WALL (       1 calls)
     phqscf       :      2.59s CPU      2.83s WALL (       1 calls)
     dynmatrix    :      0.00s CPU      0.00s WALL (       1 calls)
 
     phqscf       :      2.59s CPU      2.83s WALL (       1 calls)
     solve_linter :      2.57s CPU      2.80s WALL (       6 calls)
     drhodv       :      0.01s CPU      0.01s WALL (       6 calls)
 
     dynmat0      :      0.01s CPU      0.01s WALL (       1 calls)
     dynmat_us    :      0.01s CPU      0.01s WALL (       1 calls)
     d2ionq       :      0.00s CPU      0.00s WALL (       1 calls)
 
     dynmat_us    :      0.01s CPU      0.01s WALL (       1 calls)
 
     phqscf       :      2.59s CPU      2.83s WALL (       1 calls)
     solve_linter :      2.57s CPU      2.80s WALL (       6 calls)
 
     solve_linter :      2.57s CPU      2.80s WALL (       6 calls)
     dvqpsi_us    :      0.04s CPU      0.04s WALL (      72 calls)
     ortho        :      0.01s CPU      0.01s WALL (     432 calls)
     cgsolve      :      1.71s CPU      1.81s WALL (     432 calls)
     incdrhoscf   :      0.20s CPU      0.21s WALL (     432 calls)
     vpsifft      :      0.15s CPU      0.16s WALL (     360 calls)
     dv_of_drho   :      0.01s CPU      0.01s WALL (      36 calls)
     mix_pot      :      0.02s CPU      0.09s WALL (      36 calls)
     psymdvscf    :      0.08s CPU      0.08s WALL (      36 calls)
 
     dvqpsi_us    :      0.04s CPU      0.04s WALL (      72 calls)
     dvqpsi_us_on :      0.00s CPU      0.00s WALL (      72 calls)
 
     cgsolve      :      1.71s CPU      1.81s WALL (     432 calls)
     ch_psi       :      1.63s CPU      1.73s WALL (    3891 calls)
 
     ch_psi       :      1.63s CPU      1.73s WALL (    3891 calls)
     last         :      0.13s CPU      0.15s WALL (    3891 calls)
 
     add_vuspsi   :      0.03s CPU      0.05s WALL (    4219 calls)
 
     incdrhoscf   :      0.20s CPU      0.21s WALL (     432 calls)
 
 
      General routines
     calbec       :      0.14s CPU      0.14s WALL (    8518 calls)
     fft          :      0.01s CPU      0.01s WALL (     115 calls)
     ffts         :      0.01s CPU      0.01s WALL (     108 calls)
     fftw         :      1.64s CPU      1.69s WALL (   36712 calls)
     davcio       :      0.02s CPU      0.09s WALL (    1550 calls)
     write_rec    :      0.06s CPU      0.07s WALL (      42 calls)
 
 
     PHONON       :     3.34s CPU         3.62s WALL

 
   This run was terminated on:  11:16:39   3Aug2016            

=------------------------------------------------------------------------------=
   JOB DONE.
=------------------------------------------------------------------------------=
