
     Program PHONON v.5.4.0 (svn rev. 12590M) starts on 21Jul2016 at 16:36:33 

     This program is part of the open-source Quantum ESPRESSO suite
     for quantum simulation of materials; please cite
         "P. Giannozzi et al., J. Phys.:Condens. Matter 21 395502 (2009);
          URL http://www.quantum-espresso.org", 
     in publications or presentations arising from this work. More details at
     http://www.quantum-espresso.org/quote
 
           HOST :    x86_64-pc-linux-gnu
           ARCH :    x86_64
             CC :    icc
            CPP :    cpp
            F90 :    gfortran
            F77 :    gfortran
         DFLAGS :    -D__GFORTRAN -D__STD_F95 -D__DFTI -D__MPI -D__PARA -D__HDF5
      BLAS LIBS :    -lmkl_gf_lp64  -lmkl_sequential -lmkl_core
    LAPACK LIBS :    
       FFT LIBS :    
      MASS LIBS :    

     Parallel version (MPI), running on     2 processors
     R & G space division:  proc/nbgrp/npool/nimage =       2

     Reading data from directory:
     /home/nvarini/espresso_hdf5/espresso/tempdir/6/alas.save

   Info: using nr1, nr2, nr3 values from input

   Info: using nr1, nr2, nr3 values from input

     IMPORTANT: XC functional enforced from input :
     Exchange-correlation      =  SLA  PZ   NOGX NOGC ( 1  1  0  0 0 0)
     Any further DFT definition will be discarded
     Please, verify this is what you really want

 
     Parallelization info
     --------------------
     sticks:   dense  smooth     PW     G-vecs:    dense   smooth      PW
     Min         120     120     42                 1221     1221     229
     Max         121     121     43                 1224     1224     230
     Sum         241     241     85                 2445     2445     459
 


     Dynamical matrices for ( 4, 4, 4)  uniform grid of q-points
     (   8q-points):
       N         xq(1)         xq(2)         xq(3) 
       1   0.000000000   0.000000000   0.000000000
       2  -0.250000000   0.250000000  -0.250000000
       3   0.500000000  -0.500000000   0.500000000
       4   0.000000000   0.500000000   0.000000000
       5   0.750000000  -0.250000000   0.750000000
       6   0.500000000   0.000000000   0.500000000
       7   0.000000000  -1.000000000   0.000000000
       8  -0.500000000  -1.000000000   0.000000000

     Calculation of q =    0.5000000   0.0000000   0.5000000
 
     Parallelization info
     --------------------
     sticks:   dense  smooth     PW     G-vecs:    dense   smooth      PW
     Min         120     120     42                 1221     1221     267
     Max         121     121     43                 1224     1224     270
     Sum         241     241     85                 2445     2445     537
 


     bravais-lattice index     =            2
     lattice parameter (alat)  =      10.5000  a.u.
     unit-cell volume          =     289.4062 (a.u.)^3
     number of atoms/cell      =            2
     number of atomic types    =            2
     number of electrons       =         8.00
     number of Kohn-Sham states=            4
     kinetic-energy cutoff     =      16.0000  Ry
     charge density cutoff     =      64.0000  Ry
     Exchange-correlation      =  SLA  PZ   NOGX NOGC ( 1  1  0  0 0 0)

     celldm(1)=  10.500000  celldm(2)=   0.000000  celldm(3)=   0.000000
     celldm(4)=   0.000000  celldm(5)=   0.000000  celldm(6)=   0.000000

     crystal axes: (cart. coord. in units of alat)
               a(1) = (  -0.500000   0.000000   0.500000 )  
               a(2) = (   0.000000   0.500000   0.500000 )  
               a(3) = (  -0.500000   0.500000   0.000000 )  

     reciprocal axes: (cart. coord. in units 2 pi/alat)
               b(1) = ( -1.000000 -1.000000  1.000000 )  
               b(2) = (  1.000000  1.000000  1.000000 )  
               b(3) = ( -1.000000  1.000000 -1.000000 )  


     PseudoPot. # 1 for Al read from file:
     /home/nvarini/espresso_hdf5/espresso/pseudo/Al.pz-vbc.UPF
     MD5 check sum: 614279c88ff8d45c90147292d03ed420
     Pseudo is Norm-conserving, Zval =  3.0
     Generated by new atomic code, or converted to UPF format
     Using radial grid of  171 points,  2 beta functions with: 
                l(1) =   0
                l(2) =   1

     PseudoPot. # 2 for As read from file:
     /home/nvarini/espresso_hdf5/espresso/pseudo/As.pz-bhs.UPF
     MD5 check sum: 451cd3365afcfc94d28b1934951c34a8
     Pseudo is Norm-conserving, Zval =  5.0
     Generated by new atomic code, or converted to UPF format
     Using radial grid of  525 points,  2 beta functions with: 
                l(1) =   0
                l(2) =   1

     atomic species   valence    mass     pseudopotential
        Al             3.00    26.98000     Al( 1.00)
        As             5.00    74.92000     As( 1.00)

     24 Sym. Ops. (no inversion) found



   Cartesian axes

     site n.     atom                  positions (alat units)
         1           Al  tau(   1) = (   0.0000000   0.0000000   0.0000000  )
         2           As  tau(   2) = (   0.2500000   0.2500000   0.2500000  )

     number of k points=    40
                       cart. coord. in units 2pi/alat
        k(    1) = (   0.2500000   0.2500000   0.2500000), wk =   0.0625000
        k(    2) = (   0.7500000   0.2500000   0.7500000), wk =   0.0000000
        k(    3) = (   0.2500000   0.2500000   0.7500000), wk =   0.1250000
        k(    4) = (   0.7500000   0.2500000   1.2500000), wk =   0.0000000
        k(    5) = (  -0.2500000  -0.2500000   0.2500000), wk =   0.1250000
        k(    6) = (   0.2500000  -0.2500000   0.7500000), wk =   0.0000000
        k(    7) = (  -0.2500000   0.2500000  -0.2500000), wk =   0.0625000
        k(    8) = (   0.2500000   0.2500000   0.2500000), wk =   0.0000000
        k(    9) = (  -0.2500000  -0.2500000  -0.2500000), wk =   0.0625000
        k(   10) = (   0.2500000  -0.2500000   0.2500000), wk =   0.0000000
        k(   11) = (   0.2500000   0.2500000  -0.2500000), wk =   0.1250000
        k(   12) = (   0.7500000   0.2500000   0.2500000), wk =   0.0000000
        k(   13) = (   0.2500000  -0.2500000   0.2500000), wk =   0.0625000
        k(   14) = (   0.7500000  -0.2500000   0.7500000), wk =   0.0000000
        k(   15) = (  -0.2500000  -0.7500000   0.2500000), wk =   0.1250000
        k(   16) = (   0.2500000  -0.7500000   0.7500000), wk =   0.0000000
        k(   17) = (  -0.2500000   0.7500000  -0.2500000), wk =   0.0625000
        k(   18) = (   0.2500000   0.7500000   0.2500000), wk =   0.0000000
        k(   19) = (  -0.2500000  -0.2500000   0.7500000), wk =   0.1250000
        k(   20) = (   0.2500000  -0.2500000   1.2500000), wk =   0.0000000
        k(   21) = (   0.2500000  -0.2500000  -0.7500000), wk =   0.1250000
        k(   22) = (   0.7500000  -0.2500000  -0.2500000), wk =   0.0000000
        k(   23) = (  -0.7500000   0.2500000  -0.2500000), wk =   0.1250000
        k(   24) = (  -0.2500000   0.2500000   0.2500000), wk =   0.0000000
        k(   25) = (   0.2500000   0.7500000   0.2500000), wk =   0.0625000
        k(   26) = (   0.7500000   0.7500000   0.7500000), wk =   0.0000000
        k(   27) = (  -0.2500000  -0.2500000  -0.7500000), wk =   0.1250000
        k(   28) = (   0.2500000  -0.2500000  -0.2500000), wk =   0.0000000
        k(   29) = (   0.2500000   0.2500000  -0.7500000), wk =   0.1250000
        k(   30) = (   0.7500000   0.2500000  -0.2500000), wk =   0.0000000
        k(   31) = (   0.2500000  -0.2500000   0.7500000), wk =   0.1250000
        k(   32) = (   0.7500000  -0.2500000   1.2500000), wk =   0.0000000
        k(   33) = (  -0.2500000   0.2500000   0.7500000), wk =   0.1250000
        k(   34) = (   0.2500000   0.2500000   1.2500000), wk =   0.0000000
        k(   35) = (  -0.2500000   0.7500000   0.2500000), wk =   0.1250000
        k(   36) = (   0.2500000   0.7500000   0.7500000), wk =   0.0000000
        k(   37) = (  -0.2500000  -0.7500000  -0.2500000), wk =   0.0625000
        k(   38) = (   0.2500000  -0.7500000   0.2500000), wk =   0.0000000
        k(   39) = (   0.2500000  -0.7500000   0.2500000), wk =   0.0625000
        k(   40) = (   0.7500000  -0.7500000   0.7500000), wk =   0.0000000

     Dense  grid:     2445 G-vectors     FFT dimensions: (  20,  20,  20)

     Largest allocated arrays     est. size (Mb)     dimensions
        Kohn-Sham Wavefunctions         0.01 Mb     (     162,    4)
        NL pseudopotentials             0.02 Mb     (     162,    8)
        Each V/rho on FFT grid          0.06 Mb     (    4000)
        Each G-vector array             0.01 Mb     (    1224)
        G-vector shells                 0.00 Mb     (      61)
     Largest temporary arrays     est. size (Mb)     dimensions
        Auxiliary wavefunctions         0.04 Mb     (     162,   16)
        Each subspace H/S matrix        0.00 Mb     (      16,   16)
        Each <psi_i|beta_j> matrix      0.00 Mb     (       8,    4)

     The potential is recalculated from file :
     /home/nvarini/espresso_hdf5/espresso/tempdir/6/_ph0/alas.save/charge-density.hdf5

     Starting wfc are    8 atomic wfcs

     Band Structure Calculation
     Davidson diagonalization with overlap

     ethr =  1.25E-10,  avg # of iterations = 11.7

     total cpu time spent up to now is        0.4 secs

     End of band structure calculation

          k = 0.2500 0.2500 0.2500 (   311 PWs)   bands (ev):

    -6.3575   1.7035   4.6970   4.6970

          k = 0.7500 0.2500 0.7500 (   311 PWs)   bands (ev):

    -5.1819  -0.0415   2.3125   3.5086

          k = 0.2500 0.2500 0.7500 (   311 PWs)   bands (ev):

    -5.1819  -0.0415   2.3125   3.5086

          k = 0.7500 0.2500 1.2500 (   311 PWs)   bands (ev):

    -5.1819  -0.0415   2.3125   3.5086

          k =-0.2500-0.2500 0.2500 (   311 PWs)   bands (ev):

    -6.3575   1.7035   4.6970   4.6970

          k = 0.2500-0.2500 0.7500 (   311 PWs)   bands (ev):

    -5.1819  -0.0415   2.3125   3.5086

          k =-0.2500 0.2500-0.2500 (   311 PWs)   bands (ev):

    -6.3575   1.7035   4.6970   4.6970

          k = 0.2500 0.2500 0.2500 (   311 PWs)   bands (ev):

    -6.3575   1.7035   4.6970   4.6970

          k =-0.2500-0.2500-0.2500 (   311 PWs)   bands (ev):

    -6.3575   1.7035   4.6970   4.6970

          k = 0.2500-0.2500 0.2500 (   311 PWs)   bands (ev):

    -6.3575   1.7035   4.6970   4.6970

          k = 0.2500 0.2500-0.2500 (   311 PWs)   bands (ev):

    -6.3575   1.7035   4.6970   4.6970

          k = 0.7500 0.2500 0.2500 (   311 PWs)   bands (ev):

    -5.1819  -0.0415   2.3125   3.5086

          k = 0.2500-0.2500 0.2500 (   311 PWs)   bands (ev):

    -6.3575   1.7035   4.6970   4.6970

          k = 0.7500-0.2500 0.7500 (   311 PWs)   bands (ev):

    -5.1819  -0.0415   2.3125   3.5086

          k =-0.2500-0.7500 0.2500 (   311 PWs)   bands (ev):

    -5.1819  -0.0415   2.3125   3.5086

          k = 0.2500-0.7500 0.7500 (   311 PWs)   bands (ev):

    -5.1819  -0.0415   2.3125   3.5086

          k =-0.2500 0.7500-0.2500 (   311 PWs)   bands (ev):

    -5.1819  -0.0415   2.3125   3.5086

          k = 0.2500 0.7500 0.2500 (   311 PWs)   bands (ev):

    -5.1819  -0.0415   2.3125   3.5086

          k =-0.2500-0.2500 0.7500 (   311 PWs)   bands (ev):

    -5.1819  -0.0415   2.3125   3.5086

          k = 0.2500-0.2500 1.2500 (   311 PWs)   bands (ev):

    -5.1819  -0.0415   2.3125   3.5086

          k = 0.2500-0.2500-0.7500 (   311 PWs)   bands (ev):

    -5.1819  -0.0415   2.3125   3.5086

          k = 0.7500-0.2500-0.2500 (   311 PWs)   bands (ev):

    -5.1819  -0.0415   2.3125   3.5086

          k =-0.7500 0.2500-0.2500 (   311 PWs)   bands (ev):

    -5.1819  -0.0415   2.3125   3.5086

          k =-0.2500 0.2500 0.2500 (   311 PWs)   bands (ev):

    -6.3575   1.7035   4.6970   4.6970

          k = 0.2500 0.7500 0.2500 (   311 PWs)   bands (ev):

    -5.1819  -0.0415   2.3125   3.5086

          k = 0.7500 0.7500 0.7500 (   311 PWs)   bands (ev):

    -6.3575   1.7035   4.6970   4.6970

          k =-0.2500-0.2500-0.7500 (   311 PWs)   bands (ev):

    -5.1819  -0.0415   2.3125   3.5086

          k = 0.2500-0.2500-0.2500 (   311 PWs)   bands (ev):

    -6.3575   1.7035   4.6970   4.6970

          k = 0.2500 0.2500-0.7500 (   311 PWs)   bands (ev):

    -5.1819  -0.0415   2.3125   3.5086

          k = 0.7500 0.2500-0.2500 (   311 PWs)   bands (ev):

    -5.1819  -0.0415   2.3125   3.5086

          k = 0.2500-0.2500 0.7500 (   311 PWs)   bands (ev):

    -5.1819  -0.0415   2.3125   3.5086

          k = 0.7500-0.2500 1.2500 (   311 PWs)   bands (ev):

    -5.1819  -0.0415   2.3125   3.5086

          k =-0.2500 0.2500 0.7500 (   311 PWs)   bands (ev):

    -5.1819  -0.0415   2.3125   3.5086

          k = 0.2500 0.2500 1.2500 (   311 PWs)   bands (ev):

    -5.1819  -0.0415   2.3125   3.5086

          k =-0.2500 0.7500 0.2500 (   311 PWs)   bands (ev):

    -5.1819  -0.0415   2.3125   3.5086

          k = 0.2500 0.7500 0.7500 (   311 PWs)   bands (ev):

    -5.1819  -0.0415   2.3125   3.5086

          k =-0.2500-0.7500-0.2500 (   311 PWs)   bands (ev):

    -5.1819  -0.0415   2.3125   3.5086

          k = 0.2500-0.7500 0.2500 (   311 PWs)   bands (ev):

    -5.1819  -0.0415   2.3125   3.5086

          k = 0.2500-0.7500 0.2500 (   311 PWs)   bands (ev):

    -5.1819  -0.0415   2.3125   3.5086

          k = 0.7500-0.7500 0.7500 (   311 PWs)   bands (ev):

    -6.3575   1.7035   4.6970   4.6970

     highest occupied level (ev):     4.6970

     Writing output data file alas.save

                                                                                

     bravais-lattice index     =            2
     lattice parameter (alat)  =      10.5000  a.u.
     unit-cell volume          =     289.4062 (a.u.)^3
     number of atoms/cell      =            2
     number of atomic types    =            2
     kinetic-energy cut-off    =      16.0000  Ry
     charge density cut-off    =      64.0000  Ry
     convergence threshold     =      1.0E-12
     beta                      =       0.7000
     number of iterations used =            4
     Exchange-correlation      =  SLA  PZ   NOGX NOGC ( 1  1  0  0 0 0)


     celldm(1)=   10.50000  celldm(2)=    0.00000  celldm(3)=    0.00000
     celldm(4)=    0.00000  celldm(5)=    0.00000  celldm(6)=    0.00000

     crystal axes: (cart. coord. in units of alat)
               a(1) = ( -0.5000  0.0000  0.5000 )  
               a(2) = (  0.0000  0.5000  0.5000 )  
               a(3) = ( -0.5000  0.5000  0.0000 )  

     reciprocal axes: (cart. coord. in units 2 pi/alat)
               b(1) = ( -1.0000 -1.0000  1.0000 )  
               b(2) = (  1.0000  1.0000  1.0000 )  
               b(3) = ( -1.0000  1.0000 -1.0000 )  


     Atoms inside the unit cell: 

     Cartesian axes

     site n.  atom      mass           positions (alat units)
        1     Al  26.9800   tau(    1) = (    0.00000    0.00000    0.00000  )
        2     As  74.9200   tau(    2) = (    0.25000    0.25000    0.25000  )

     Computing dynamical matrix for 
                    q = (   0.5000000   0.0000000   0.5000000 )
 
      2 Sym.Ops. (no q -> -q+G )


     G cutoff =  178.7306  (   1224 G-vectors)     FFT grid: ( 20, 20, 20)
     number of k points=    40

     PseudoPot. # 1 for Al read from file:
     /home/nvarini/espresso_hdf5/espresso/pseudo/Al.pz-vbc.UPF
     MD5 check sum: 614279c88ff8d45c90147292d03ed420
     Pseudo is Norm-conserving, Zval =  3.0
     Generated by new atomic code, or converted to UPF format
     Using radial grid of  171 points,  2 beta functions with: 
                l(1) =   0
                l(2) =   1

     PseudoPot. # 2 for As read from file:
     /home/nvarini/espresso_hdf5/espresso/pseudo/As.pz-bhs.UPF
     MD5 check sum: 451cd3365afcfc94d28b1934951c34a8
     Pseudo is Norm-conserving, Zval =  5.0
     Generated by new atomic code, or converted to UPF format
     Using radial grid of  525 points,  2 beta functions with: 
                l(1) =   0
                l(2) =   1

     Mode symmetry, C_s (m)     point group:


     Atomic displacements:
     There are   6 irreducible representations

     Representation     1      1 modes -A'  To be done

     Representation     2      1 modes -A'  To be done

     Representation     3      1 modes -A'  To be done

     Representation     4      1 modes -A'  To be done

     Representation     5      1 modes -A''  To be done

     Representation     6      1 modes -A''  To be done



     Alpha used in Ewald sum =   0.7000
     PHONON       :     0.89s CPU         0.94s WALL



     Representation #  1 mode #   1

     Self-consistent Calculation

      iter #   1 total cpu time :     1.0 secs   av.it.:   6.2
      thresh= 1.000E-02 alpha_mix =  0.700 |ddv_scf|^2 =  2.073E-04

      iter #   2 total cpu time :     1.2 secs   av.it.:   8.7
      thresh= 1.440E-03 alpha_mix =  0.700 |ddv_scf|^2 =  7.319E-04

      iter #   3 total cpu time :     1.3 secs   av.it.:   7.7
      thresh= 2.705E-03 alpha_mix =  0.700 |ddv_scf|^2 =  1.634E-06

      iter #   4 total cpu time :     1.4 secs   av.it.:   8.3
      thresh= 1.278E-04 alpha_mix =  0.700 |ddv_scf|^2 =  5.250E-09

      iter #   5 total cpu time :     1.6 secs   av.it.:   8.4
      thresh= 7.246E-06 alpha_mix =  0.700 |ddv_scf|^2 =  3.968E-10

      iter #   6 total cpu time :     1.7 secs   av.it.:   8.6
      thresh= 1.992E-06 alpha_mix =  0.700 |ddv_scf|^2 =  1.227E-11

      iter #   7 total cpu time :     1.8 secs   av.it.:   8.3
      thresh= 3.504E-07 alpha_mix =  0.700 |ddv_scf|^2 =  1.135E-12

      iter #   8 total cpu time :     2.0 secs   av.it.:   8.2
      thresh= 1.065E-07 alpha_mix =  0.700 |ddv_scf|^2 =  4.549E-13

     End of self-consistent calculation

     Convergence has been achieved 


     Representation #  2 mode #   2

     Self-consistent Calculation

      iter #   1 total cpu time :     2.1 secs   av.it.:   5.6
      thresh= 1.000E-02 alpha_mix =  0.700 |ddv_scf|^2 =  2.520E-05

      iter #   2 total cpu time :     2.2 secs   av.it.:   8.7
      thresh= 5.020E-04 alpha_mix =  0.700 |ddv_scf|^2 =  9.105E-05

      iter #   3 total cpu time :     2.3 secs   av.it.:   7.6
      thresh= 9.542E-04 alpha_mix =  0.700 |ddv_scf|^2 =  1.569E-07

      iter #   4 total cpu time :     2.5 secs   av.it.:   8.6
      thresh= 3.961E-05 alpha_mix =  0.700 |ddv_scf|^2 =  2.185E-09

      iter #   5 total cpu time :     2.6 secs   av.it.:   8.6
      thresh= 4.674E-06 alpha_mix =  0.700 |ddv_scf|^2 =  1.563E-10

      iter #   6 total cpu time :     2.7 secs   av.it.:   8.6
      thresh= 1.250E-06 alpha_mix =  0.700 |ddv_scf|^2 =  2.196E-11

      iter #   7 total cpu time :     2.9 secs   av.it.:   8.6
      thresh= 4.686E-07 alpha_mix =  0.700 |ddv_scf|^2 =  1.248E-12

      iter #   8 total cpu time :     3.0 secs   av.it.:   8.5
      thresh= 1.117E-07 alpha_mix =  0.700 |ddv_scf|^2 =  1.898E-12

      iter #   9 total cpu time :     3.1 secs   av.it.:   7.5
      thresh= 1.378E-07 alpha_mix =  0.700 |ddv_scf|^2 =  8.410E-14

     End of self-consistent calculation

     Convergence has been achieved 


     Representation #  3 mode #   3

     Self-consistent Calculation

      iter #   1 total cpu time :     3.2 secs   av.it.:   6.3
      thresh= 1.000E-02 alpha_mix =  0.700 |ddv_scf|^2 =  2.771E-04

      iter #   2 total cpu time :     3.4 secs   av.it.:   8.8
      thresh= 1.665E-03 alpha_mix =  0.700 |ddv_scf|^2 =  1.001E-03

      iter #   3 total cpu time :     3.5 secs   av.it.:   7.6
      thresh= 3.163E-03 alpha_mix =  0.700 |ddv_scf|^2 =  1.086E-06

      iter #   4 total cpu time :     3.6 secs   av.it.:   8.7
      thresh= 1.042E-04 alpha_mix =  0.700 |ddv_scf|^2 =  6.320E-09

      iter #   5 total cpu time :     3.7 secs   av.it.:   8.2
      thresh= 7.950E-06 alpha_mix =  0.700 |ddv_scf|^2 =  4.175E-10

      iter #   6 total cpu time :     3.9 secs   av.it.:   8.5
      thresh= 2.043E-06 alpha_mix =  0.700 |ddv_scf|^2 =  9.586E-12

      iter #   7 total cpu time :     4.0 secs   av.it.:   8.7
      thresh= 3.096E-07 alpha_mix =  0.700 |ddv_scf|^2 =  4.711E-12

      iter #   8 total cpu time :     4.1 secs   av.it.:   8.2
      thresh= 2.170E-07 alpha_mix =  0.700 |ddv_scf|^2 =  4.234E-12

      iter #   9 total cpu time :     4.3 secs   av.it.:   7.6
      thresh= 2.058E-07 alpha_mix =  0.700 |ddv_scf|^2 =  1.309E-14

     End of self-consistent calculation

     Convergence has been achieved 


     Representation #  4 mode #   4

     Self-consistent Calculation

      iter #   1 total cpu time :     4.4 secs   av.it.:   5.7
      thresh= 1.000E-02 alpha_mix =  0.700 |ddv_scf|^2 =  6.901E-05

      iter #   2 total cpu time :     4.5 secs   av.it.:   8.5
      thresh= 8.307E-04 alpha_mix =  0.700 |ddv_scf|^2 =  2.235E-04

      iter #   3 total cpu time :     4.6 secs   av.it.:   7.5
      thresh= 1.495E-03 alpha_mix =  0.700 |ddv_scf|^2 =  5.078E-07

      iter #   4 total cpu time :     4.8 secs   av.it.:   8.2
      thresh= 7.126E-05 alpha_mix =  0.700 |ddv_scf|^2 =  4.256E-09

      iter #   5 total cpu time :     4.9 secs   av.it.:   8.0
      thresh= 6.524E-06 alpha_mix =  0.700 |ddv_scf|^2 =  7.986E-11

      iter #   6 total cpu time :     5.0 secs   av.it.:   8.8
      thresh= 8.936E-07 alpha_mix =  0.700 |ddv_scf|^2 =  1.544E-11

      iter #   7 total cpu time :     5.2 secs   av.it.:   8.7
      thresh= 3.929E-07 alpha_mix =  0.700 |ddv_scf|^2 =  5.569E-14

     End of self-consistent calculation

     Convergence has been achieved 


     Representation #  5 mode #   5

     Self-consistent Calculation

      iter #   1 total cpu time :     5.3 secs   av.it.:   4.7
      thresh= 1.000E-02 alpha_mix =  0.700 |ddv_scf|^2 =  6.756E-07

      iter #   2 total cpu time :     5.4 secs   av.it.:   8.5
      thresh= 8.219E-05 alpha_mix =  0.700 |ddv_scf|^2 =  4.960E-08

      iter #   3 total cpu time :     5.5 secs   av.it.:   8.2
      thresh= 2.227E-05 alpha_mix =  0.700 |ddv_scf|^2 =  5.827E-10

      iter #   4 total cpu time :     5.6 secs   av.it.:   7.7
      thresh= 2.414E-06 alpha_mix =  0.700 |ddv_scf|^2 =  2.524E-11

      iter #   5 total cpu time :     5.8 secs   av.it.:   7.5
      thresh= 5.024E-07 alpha_mix =  0.700 |ddv_scf|^2 =  4.263E-15

     End of self-consistent calculation

     Convergence has been achieved 


     Representation #  6 mode #   6

     Self-consistent Calculation

      iter #   1 total cpu time :     5.9 secs   av.it.:   5.8
      thresh= 1.000E-02 alpha_mix =  0.700 |ddv_scf|^2 =  6.504E-06

      iter #   2 total cpu time :     6.0 secs   av.it.:   8.4
      thresh= 2.550E-04 alpha_mix =  0.700 |ddv_scf|^2 =  6.176E-07

      iter #   3 total cpu time :     6.1 secs   av.it.:   8.2
      thresh= 7.858E-05 alpha_mix =  0.700 |ddv_scf|^2 =  3.673E-10

      iter #   4 total cpu time :     6.3 secs   av.it.:   7.9
      thresh= 1.916E-06 alpha_mix =  0.700 |ddv_scf|^2 =  1.170E-11

      iter #   5 total cpu time :     6.4 secs   av.it.:   7.9
      thresh= 3.421E-07 alpha_mix =  0.700 |ddv_scf|^2 =  6.878E-14

     End of self-consistent calculation

     Convergence has been achieved 
 
     Number of q in the star =   12
     List of q in the star:
          1   0.500000000   0.000000000   0.500000000
          2  -0.500000000  -0.500000000   0.000000000
          3  -0.500000000   0.500000000   0.000000000
          4  -0.500000000   0.000000000   0.500000000
          5   0.500000000   0.000000000  -0.500000000
          6   0.500000000   0.500000000   0.000000000
          7   0.500000000  -0.500000000   0.000000000
          8   0.000000000   0.500000000   0.500000000
          9   0.000000000   0.500000000  -0.500000000
         10   0.000000000  -0.500000000  -0.500000000
         11   0.000000000  -0.500000000   0.500000000
         12  -0.500000000   0.000000000  -0.500000000

     Diagonalizing the dynamical matrix

     q = (    0.500000000   0.000000000   0.500000000 ) 

 **************************************************************************
     freq (    1) =       2.515009 [THz] =      83.891683 [cm-1]
     freq (    2) =       3.824670 [THz] =     127.577267 [cm-1]
     freq (    3) =       5.427048 [THz] =     181.026836 [cm-1]
     freq (    4) =      10.718212 [THz] =     357.521057 [cm-1]
     freq (    5) =      10.737644 [THz] =     358.169258 [cm-1]
     freq (    6) =      11.302179 [THz] =     377.000119 [cm-1]
 **************************************************************************

     Mode symmetry, C_s (m)     point group:

     freq (  1 -  1) =         83.9  [cm-1]   --> A''                
     freq (  2 -  2) =        127.6  [cm-1]   --> A'                 
     freq (  3 -  3) =        181.0  [cm-1]   --> A'                 
     freq (  4 -  4) =        357.5  [cm-1]   --> A'                 
     freq (  5 -  5) =        358.2  [cm-1]   --> A''                
     freq (  6 -  6) =        377.0  [cm-1]   --> A'                 
 
     init_run     :      0.02s CPU      0.02s WALL (       1 calls)
     electrons    :      0.33s CPU      0.35s WALL (       1 calls)

     Called by init_run:
     wfcinit      :      0.00s CPU      0.00s WALL (       1 calls)
     potinit      :      0.00s CPU      0.00s WALL (       1 calls)

     Called by electrons:
     c_bands      :      0.33s CPU      0.35s WALL (       1 calls)
     v_of_rho     :      0.00s CPU      0.00s WALL (       2 calls)

     Called by c_bands:
     init_us_2    :      0.02s CPU      0.05s WALL (    1060 calls)
     cegterg      :      0.27s CPU      0.28s WALL (      40 calls)

     Called by sum_band:

     Called by *egterg:
     h_psi        :      3.32s CPU      3.46s WALL (    8471 calls)
     g_psi        :      0.00s CPU      0.00s WALL (     468 calls)
     cdiaghg      :      0.05s CPU      0.04s WALL (     508 calls)

     Called by h_psi:
     add_vuspsi   :      0.08s CPU      0.09s WALL (    8471 calls)

     General routines
     calbec       :      0.27s CPU      0.29s WALL (   17074 calls)
     fft          :      0.01s CPU      0.01s WALL (     136 calls)
     ffts         :      0.01s CPU      0.01s WALL (     156 calls)
     fftw         :      3.36s CPU      3.44s WALL (   74614 calls)
     davcio       :      0.04s CPU      0.04s WALL (    2934 calls)
 
     Parallel routines
     fft_scatter  :      0.86s CPU      0.89s WALL (   74906 calls)
 
     PHONON       :     6.10s CPU         6.41s WALL

     INITIALIZATION: 
     phq_setup    :      0.01s CPU      0.01s WALL (       1 calls)
     phq_init     :      0.04s CPU      0.04s WALL (       1 calls)
 
     phq_init     :      0.04s CPU      0.04s WALL (       1 calls)
     init_vloc    :      0.00s CPU      0.00s WALL (       2 calls)
     init_us_1    :      0.02s CPU      0.02s WALL (       2 calls)
 
     DYNAMICAL MATRIX:
     dynmat0      :      0.01s CPU      0.01s WALL (       1 calls)
     phqscf       :      5.20s CPU      5.46s WALL (       1 calls)
     dynmatrix    :      0.00s CPU      0.00s WALL (       1 calls)
 
     phqscf       :      5.20s CPU      5.46s WALL (       1 calls)
     solve_linter :      5.17s CPU      5.43s WALL (       6 calls)
     drhodv       :      0.01s CPU      0.02s WALL (       6 calls)
 
     dynmat0      :      0.01s CPU      0.01s WALL (       1 calls)
     dynmat_us    :      0.01s CPU      0.01s WALL (       1 calls)
     d2ionq       :      0.00s CPU      0.00s WALL (       1 calls)
 
     dynmat_us    :      0.01s CPU      0.01s WALL (       1 calls)
 
     phqscf       :      5.20s CPU      5.46s WALL (       1 calls)
     solve_linter :      5.17s CPU      5.43s WALL (       6 calls)
 
     solve_linter :      5.17s CPU      5.43s WALL (       6 calls)
     dvqpsi_us    :      0.07s CPU      0.07s WALL (     120 calls)
     ortho        :      0.03s CPU      0.03s WALL (     860 calls)
     cgsolve      :      3.60s CPU      3.76s WALL (     860 calls)
     incdrhoscf   :      0.40s CPU      0.42s WALL (     860 calls)
     vpsifft      :      0.32s CPU      0.33s WALL (     740 calls)
     dv_of_drho   :      0.01s CPU      0.01s WALL (      43 calls)
     mix_pot      :      0.02s CPU      0.02s WALL (      43 calls)
     psymdvscf    :      0.05s CPU      0.05s WALL (      43 calls)
 
     dvqpsi_us    :      0.07s CPU      0.07s WALL (     120 calls)
     dvqpsi_us_on :      0.01s CPU      0.01s WALL (     120 calls)
 
     cgsolve      :      3.60s CPU      3.76s WALL (     860 calls)
     ch_psi       :      3.44s CPU      3.60s WALL (    7923 calls)
 
     ch_psi       :      3.44s CPU      3.60s WALL (    7923 calls)
     last         :      0.29s CPU      0.30s WALL (    7923 calls)
 
     add_vuspsi   :      0.08s CPU      0.09s WALL (    8471 calls)
 
     incdrhoscf   :      0.40s CPU      0.42s WALL (     860 calls)
 
 
      General routines
     calbec       :      0.27s CPU      0.29s WALL (   17074 calls)
     fft          :      0.01s CPU      0.01s WALL (     136 calls)
     ffts         :      0.01s CPU      0.01s WALL (     156 calls)
     fftw         :      3.36s CPU      3.44s WALL (   74614 calls)
     davcio       :      0.04s CPU      0.04s WALL (    2934 calls)
     write_rec    :      0.07s CPU      0.08s WALL (      49 calls)
 
 
     PHONON       :     6.10s CPU         6.41s WALL

 
   This run was terminated on:  16:36:39  21Jul2016            

=------------------------------------------------------------------------------=
   JOB DONE.
=------------------------------------------------------------------------------=
