
     Program PHONON v.6.beta (svn rev. 12834M) starts on 25Aug2016 at 11:37:44 

     This program is part of the open-source Quantum ESPRESSO suite
     for quantum simulation of materials; please cite
         "P. Giannozzi et al., J. Phys.:Condens. Matter 21 395502 (2009);
          URL http://www.quantum-espresso.org", 
     in publications or presentations arising from this work. More details at
     http://www.quantum-espresso.org/quote
 
           HOST :    x86_64-pc-linux-gnu
           ARCH :    x86_64
             CC :    icc
            CPP :    cpp
            F90 :    ifort
            F77 :    ifort
         DFLAGS :    -D__INTEL -D__FFTW -D__MPI -D__PARA -D__HDF5
      BLAS LIBS :    -lmkl_intel_lp64  -lmkl_sequential -lmkl_core
    LAPACK LIBS :    
       FFT LIBS :    
      MASS LIBS :    

     Parallel version (MPI), running on     2 processors
     R & G space division:  proc/nbgrp/npool/nimage =       2

     Reading data from directory:
     /home/nvarini/espresso_hdf5/espresso/tempdir/5/alas.save

   Info: using nr1, nr2, nr3 values from input

   Info: using nr1, nr2, nr3 values from input

     IMPORTANT: XC functional enforced from input :
     Exchange-correlation      =  SLA  PZ   NOGX NOGC ( 1  1  0  0 0 0)
     Any further DFT definition will be discarded
     Please, verify this is what you really want

 
     Parallelization info
     --------------------
     sticks:   dense  smooth     PW     G-vecs:    dense   smooth      PW
     Min         120     120     42                 1221     1221     229
     Max         121     121     43                 1224     1224     230
     Sum         241     241     85                 2445     2445     459
 


     Dynamical matrices for ( 4, 4, 4)  uniform grid of q-points
     (   8q-points):
       N         xq(1)         xq(2)         xq(3) 
       1   0.000000000   0.000000000   0.000000000
       2  -0.250000000   0.250000000  -0.250000000
       3   0.500000000  -0.500000000   0.500000000
       4   0.000000000   0.500000000   0.000000000
       5   0.750000000  -0.250000000   0.750000000
       6   0.500000000   0.000000000   0.500000000
       7   0.000000000  -1.000000000   0.000000000
       8  -0.500000000  -1.000000000   0.000000000

     Calculation of q =    0.7500000  -0.2500000   0.7500000
 
     Parallelization info
     --------------------
     sticks:   dense  smooth     PW     G-vecs:    dense   smooth      PW
     Min         120     120     48                 1221     1221     322
     Max         121     121     49                 1224     1224     323
     Sum         241     241     97                 2445     2445     645
 


     bravais-lattice index     =            2
     lattice parameter (alat)  =      10.5000  a.u.
     unit-cell volume          =     289.4062 (a.u.)^3
     number of atoms/cell      =            2
     number of atomic types    =            2
     number of electrons       =         8.00
     number of Kohn-Sham states=            4
     kinetic-energy cutoff     =      16.0000  Ry
     charge density cutoff     =      64.0000  Ry
     Exchange-correlation      =  SLA  PZ   NOGX NOGC ( 1  1  0  0 0 0)

     celldm(1)=  10.500000  celldm(2)=   0.000000  celldm(3)=   0.000000
     celldm(4)=   0.000000  celldm(5)=   0.000000  celldm(6)=   0.000000

     crystal axes: (cart. coord. in units of alat)
               a(1) = (  -0.500000   0.000000   0.500000 )  
               a(2) = (   0.000000   0.500000   0.500000 )  
               a(3) = (  -0.500000   0.500000   0.000000 )  

     reciprocal axes: (cart. coord. in units 2 pi/alat)
               b(1) = ( -1.000000 -1.000000  1.000000 )  
               b(2) = (  1.000000  1.000000  1.000000 )  
               b(3) = ( -1.000000  1.000000 -1.000000 )  


     PseudoPot. # 1 for Al read from file:
     /home/nvarini/espresso_hdf5/espresso/pseudo/Al.pz-vbc.UPF
     MD5 check sum: 614279c88ff8d45c90147292d03ed420
     Pseudo is Norm-conserving, Zval =  3.0
     Generated by new atomic code, or converted to UPF format
     Using radial grid of  171 points,  2 beta functions with: 
                l(1) =   0
                l(2) =   1

     PseudoPot. # 2 for As read from file:
     /home/nvarini/espresso_hdf5/espresso/pseudo/As.pz-bhs.UPF
     MD5 check sum: 451cd3365afcfc94d28b1934951c34a8
     Pseudo is Norm-conserving, Zval =  5.0
     Generated by new atomic code, or converted to UPF format
     Using radial grid of  525 points,  2 beta functions with: 
                l(1) =   0
                l(2) =   1

     atomic species   valence    mass     pseudopotential
        Al             3.00    26.98000     Al( 1.00)
        As             5.00    74.92000     As( 1.00)

     24 Sym. Ops. (no inversion) found



   Cartesian axes

     site n.     atom                  positions (alat units)
         1           Al  tau(   1) = (   0.0000000   0.0000000   0.0000000  )
         2           As  tau(   2) = (   0.2500000   0.2500000   0.2500000  )

     number of k points=    40
                       cart. coord. in units 2pi/alat
        k(    1) = (   0.2500000   0.2500000   0.2500000), wk =   0.0625000
        k(    2) = (   1.0000000   0.0000000   1.0000000), wk =   0.0000000
        k(    3) = (   0.2500000   0.2500000   0.7500000), wk =   0.1250000
        k(    4) = (   1.0000000   0.0000000   1.5000000), wk =   0.0000000
        k(    5) = (  -0.2500000  -0.2500000   0.2500000), wk =   0.1250000
        k(    6) = (   0.5000000  -0.5000000   1.0000000), wk =   0.0000000
        k(    7) = (  -0.2500000   0.2500000  -0.2500000), wk =   0.0625000
        k(    8) = (   0.5000000   0.0000000   0.5000000), wk =   0.0000000
        k(    9) = (  -0.2500000  -0.2500000  -0.2500000), wk =   0.0625000
        k(   10) = (   0.5000000  -0.5000000   0.5000000), wk =   0.0000000
        k(   11) = (   0.2500000   0.2500000  -0.2500000), wk =   0.1250000
        k(   12) = (   1.0000000   0.0000000   0.5000000), wk =   0.0000000
        k(   13) = (   0.2500000  -0.2500000   0.2500000), wk =   0.0625000
        k(   14) = (   1.0000000  -0.5000000   1.0000000), wk =   0.0000000
        k(   15) = (  -0.2500000  -0.7500000   0.2500000), wk =   0.1250000
        k(   16) = (   0.5000000  -1.0000000   1.0000000), wk =   0.0000000
        k(   17) = (  -0.2500000   0.7500000  -0.2500000), wk =   0.0625000
        k(   18) = (   0.5000000   0.5000000   0.5000000), wk =   0.0000000
        k(   19) = (  -0.2500000  -0.2500000   0.7500000), wk =   0.1250000
        k(   20) = (   0.5000000  -0.5000000   1.5000000), wk =   0.0000000
        k(   21) = (   0.2500000  -0.2500000  -0.7500000), wk =   0.1250000
        k(   22) = (   1.0000000  -0.5000000   0.0000000), wk =   0.0000000
        k(   23) = (  -0.7500000   0.2500000  -0.2500000), wk =   0.1250000
        k(   24) = (   0.0000000   0.0000000   0.5000000), wk =   0.0000000
        k(   25) = (   0.2500000   0.7500000   0.2500000), wk =   0.0625000
        k(   26) = (   1.0000000   0.5000000   1.0000000), wk =   0.0000000
        k(   27) = (  -0.2500000  -0.2500000  -0.7500000), wk =   0.1250000
        k(   28) = (   0.5000000  -0.5000000   0.0000000), wk =   0.0000000
        k(   29) = (   0.2500000   0.2500000  -0.7500000), wk =   0.1250000
        k(   30) = (   1.0000000   0.0000000   0.0000000), wk =   0.0000000
        k(   31) = (   0.2500000  -0.2500000   0.7500000), wk =   0.1250000
        k(   32) = (   1.0000000  -0.5000000   1.5000000), wk =   0.0000000
        k(   33) = (  -0.2500000   0.2500000   0.7500000), wk =   0.1250000
        k(   34) = (   0.5000000   0.0000000   1.5000000), wk =   0.0000000
        k(   35) = (  -0.2500000   0.7500000   0.2500000), wk =   0.1250000
        k(   36) = (   0.5000000   0.5000000   1.0000000), wk =   0.0000000
        k(   37) = (  -0.2500000  -0.7500000  -0.2500000), wk =   0.0625000
        k(   38) = (   0.5000000  -1.0000000   0.5000000), wk =   0.0000000
        k(   39) = (   0.2500000  -0.7500000   0.2500000), wk =   0.0625000
        k(   40) = (   1.0000000  -1.0000000   1.0000000), wk =   0.0000000

     Dense  grid:     2445 G-vectors     FFT dimensions: (  20,  20,  20)

     Estimated max dynamical RAM per process >       0.51Mb

     Estimated total allocated dynamical RAM >       1.02Mb

     The potential is recalculated from file :
     /home/nvarini/espresso_hdf5/espresso/tempdir/5/_ph0/alas.save/charge-density.hdf5

     Starting wfc are    8 atomic wfcs

     Band Structure Calculation
     Davidson diagonalization with overlap

     ethr =  1.25E-10,  avg # of iterations = 11.0

     total cpu time spent up to now is        0.4 secs

     End of band structure calculation

          k = 0.2500 0.2500 0.2500 (   311 PWs)   bands (ev):

    -6.3575   1.7035   4.6970   4.6970

          k = 1.0000 0.0000 1.0000 (   302 PWs)   bands (ev):

    -4.8217  -0.4470   2.9274   2.9274

          k = 0.2500 0.2500 0.7500 (   311 PWs)   bands (ev):

    -5.1819  -0.0415   2.3125   3.5086

          k = 1.0000 0.0000 1.5000 (   308 PWs)   bands (ev):

    -4.7852  -0.0517   1.7949   2.1910

          k =-0.2500-0.2500 0.2500 (   311 PWs)   bands (ev):

    -6.3575   1.7035   4.6970   4.6970

          k = 0.5000-0.5000 1.0000 (   315 PWs)   bands (ev):

    -5.5287   0.5005   2.1485   4.2663

          k =-0.2500 0.2500-0.2500 (   311 PWs)   bands (ev):

    -6.3575   1.7035   4.6970   4.6970

          k = 0.5000 0.0000 0.5000 (   315 PWs)   bands (ev):

    -5.5287   0.5005   2.1485   4.2663

          k =-0.2500-0.2500-0.2500 (   311 PWs)   bands (ev):

    -6.3575   1.7035   4.6970   4.6970

          k = 0.5000-0.5000 0.5000 (   302 PWs)   bands (ev):

    -5.4218  -0.6403   4.3483   4.3483

          k = 0.2500 0.2500-0.2500 (   311 PWs)   bands (ev):

    -6.3575   1.7035   4.6970   4.6970

          k = 1.0000 0.0000 0.5000 (   308 PWs)   bands (ev):

    -4.7852  -0.0517   1.7949   2.1910

          k = 0.2500-0.2500 0.2500 (   311 PWs)   bands (ev):

    -6.3575   1.7035   4.6970   4.6970

          k = 1.0000-0.5000 1.0000 (   311 PWs)   bands (ev):

    -6.1430   1.9396   3.7847   3.7847

          k =-0.2500-0.7500 0.2500 (   311 PWs)   bands (ev):

    -5.1819  -0.0415   2.3125   3.5086

          k = 0.5000-1.0000 1.0000 (   311 PWs)   bands (ev):

    -6.1430   1.9396   3.7847   3.7847

          k =-0.2500 0.7500-0.2500 (   311 PWs)   bands (ev):

    -5.1819  -0.0415   2.3125   3.5086

          k = 0.5000 0.5000 0.5000 (   302 PWs)   bands (ev):

    -5.4218  -0.6403   4.3483   4.3483

          k =-0.2500-0.2500 0.7500 (   311 PWs)   bands (ev):

    -5.1819  -0.0415   2.3125   3.5086

          k = 0.5000-0.5000 1.5000 (   302 PWs)   bands (ev):

    -5.4218  -0.6403   4.3483   4.3483

          k = 0.2500-0.2500-0.7500 (   311 PWs)   bands (ev):

    -5.1819  -0.0415   2.3125   3.5086

          k = 1.0000-0.5000 0.0000 (   308 PWs)   bands (ev):

    -4.7852  -0.0517   1.7949   2.1910

          k =-0.7500 0.2500-0.2500 (   311 PWs)   bands (ev):

    -5.1819  -0.0415   2.3125   3.5086

          k = 0.0000 0.0000 0.5000 (   311 PWs)   bands (ev):

    -6.1430   1.9396   3.7847   3.7847

          k = 0.2500 0.7500 0.2500 (   311 PWs)   bands (ev):

    -5.1819  -0.0415   2.3125   3.5086

          k = 1.0000 0.5000 1.0000 (   311 PWs)   bands (ev):

    -6.1430   1.9396   3.7847   3.7847

          k =-0.2500-0.2500-0.7500 (   311 PWs)   bands (ev):

    -5.1819  -0.0415   2.3125   3.5086

          k = 0.5000-0.5000 0.0000 (   315 PWs)   bands (ev):

    -5.5287   0.5005   2.1485   4.2663

          k = 0.2500 0.2500-0.7500 (   311 PWs)   bands (ev):

    -5.1819  -0.0415   2.3125   3.5086

          k = 1.0000 0.0000 0.0000 (   302 PWs)   bands (ev):

    -4.8217  -0.4470   2.9274   2.9274

          k = 0.2500-0.2500 0.7500 (   311 PWs)   bands (ev):

    -5.1819  -0.0415   2.3125   3.5086

          k = 1.0000-0.5000 1.5000 (   315 PWs)   bands (ev):

    -5.5287   0.5005   2.1485   4.2663

          k =-0.2500 0.2500 0.7500 (   311 PWs)   bands (ev):

    -5.1819  -0.0415   2.3125   3.5086

          k = 0.5000 0.0000 1.5000 (   315 PWs)   bands (ev):

    -5.5287   0.5005   2.1485   4.2663

          k =-0.2500 0.7500 0.2500 (   311 PWs)   bands (ev):

    -5.1819  -0.0415   2.3125   3.5086

          k = 0.5000 0.5000 1.0000 (   315 PWs)   bands (ev):

    -5.5287   0.5005   2.1485   4.2663

          k =-0.2500-0.7500-0.2500 (   311 PWs)   bands (ev):

    -5.1819  -0.0415   2.3125   3.5086

          k = 0.5000-1.0000 0.5000 (   315 PWs)   bands (ev):

    -5.5287   0.5005   2.1485   4.2663

          k = 0.2500-0.7500 0.2500 (   311 PWs)   bands (ev):

    -5.1819  -0.0415   2.3125   3.5086

          k = 1.0000-1.0000 1.0000 (   331 PWs)   bands (ev):

    -6.9797   5.1761   5.1761   5.1761

     highest occupied level (ev):     5.1761

     Writing output data file alas.save

                                                                                

     bravais-lattice index     =            2
     lattice parameter (alat)  =      10.5000  a.u.
     unit-cell volume          =     289.4062 (a.u.)^3
     number of atoms/cell      =            2
     number of atomic types    =            2
     kinetic-energy cut-off    =      16.0000  Ry
     charge density cut-off    =      64.0000  Ry
     convergence threshold     =      1.0E-12
     beta                      =       0.7000
     number of iterations used =            4
     Exchange-correlation      =  SLA  PZ   NOGX NOGC ( 1  1  0  0 0 0)


     celldm(1)=   10.50000  celldm(2)=    0.00000  celldm(3)=    0.00000
     celldm(4)=    0.00000  celldm(5)=    0.00000  celldm(6)=    0.00000

     crystal axes: (cart. coord. in units of alat)
               a(1) = ( -0.5000  0.0000  0.5000 )  
               a(2) = (  0.0000  0.5000  0.5000 )  
               a(3) = ( -0.5000  0.5000  0.0000 )  

     reciprocal axes: (cart. coord. in units 2 pi/alat)
               b(1) = ( -1.0000 -1.0000  1.0000 )  
               b(2) = (  1.0000  1.0000  1.0000 )  
               b(3) = ( -1.0000  1.0000 -1.0000 )  


     Atoms inside the unit cell: 

     Cartesian axes

     site n.  atom      mass           positions (alat units)
        1     Al  26.9800   tau(    1) = (    0.00000    0.00000    0.00000  )
        2     As  74.9200   tau(    2) = (    0.25000    0.25000    0.25000  )

     Computing dynamical matrix for 
                    q = (   0.7500000  -0.2500000   0.7500000 )
 
      2 Sym.Ops. (no q -> -q+G )


     G cutoff =  178.7306  (   1224 G-vectors)     FFT grid: ( 20, 20, 20)
     number of k points=    40

     PseudoPot. # 1 for Al read from file:
     /home/nvarini/espresso_hdf5/espresso/pseudo/Al.pz-vbc.UPF
     MD5 check sum: 614279c88ff8d45c90147292d03ed420
     Pseudo is Norm-conserving, Zval =  3.0
     Generated by new atomic code, or converted to UPF format
     Using radial grid of  171 points,  2 beta functions with: 
                l(1) =   0
                l(2) =   1

     PseudoPot. # 2 for As read from file:
     /home/nvarini/espresso_hdf5/espresso/pseudo/As.pz-bhs.UPF
     MD5 check sum: 451cd3365afcfc94d28b1934951c34a8
     Pseudo is Norm-conserving, Zval =  5.0
     Generated by new atomic code, or converted to UPF format
     Using radial grid of  525 points,  2 beta functions with: 
                l(1) =   0
                l(2) =   1

     Mode symmetry, C_s (m)     point group:


     Atomic displacements:
     There are   6 irreducible representations

     Representation     1      1 modes -A'  To be done

     Representation     2      1 modes -A'  To be done

     Representation     3      1 modes -A'  To be done

     Representation     4      1 modes -A'  To be done

     Representation     5      1 modes -A''  To be done

     Representation     6      1 modes -A''  To be done



     Alpha used in Ewald sum =   0.7000
     PHONON       :     0.90s CPU         1.39s WALL



     Representation #  1 mode #   1

     Self-consistent Calculation

      iter #   1 total cpu time :     1.5 secs   av.it.:   6.3
      thresh= 1.000E-02 alpha_mix =  0.700 |ddv_scf|^2 =  1.089E-04

      iter #   2 total cpu time :     1.6 secs   av.it.:   8.7
      thresh= 1.044E-03 alpha_mix =  0.700 |ddv_scf|^2 =  2.312E-04

      iter #   3 total cpu time :     1.8 secs   av.it.:   7.8
      thresh= 1.520E-03 alpha_mix =  0.700 |ddv_scf|^2 =  1.033E-06

      iter #   4 total cpu time :     1.9 secs   av.it.:   8.5
      thresh= 1.016E-04 alpha_mix =  0.700 |ddv_scf|^2 =  7.486E-09

      iter #   5 total cpu time :     2.0 secs   av.it.:   8.7
      thresh= 8.652E-06 alpha_mix =  0.700 |ddv_scf|^2 =  6.050E-10

      iter #   6 total cpu time :     2.2 secs   av.it.:   8.6
      thresh= 2.460E-06 alpha_mix =  0.700 |ddv_scf|^2 =  9.950E-12

      iter #   7 total cpu time :     2.3 secs   av.it.:   8.4
      thresh= 3.154E-07 alpha_mix =  0.700 |ddv_scf|^2 =  3.269E-13

     End of self-consistent calculation

     Convergence has been achieved 


     Representation #  2 mode #   2

     Self-consistent Calculation

      iter #   1 total cpu time :     2.4 secs   av.it.:   5.6
      thresh= 1.000E-02 alpha_mix =  0.700 |ddv_scf|^2 =  3.249E-05

      iter #   2 total cpu time :     2.6 secs   av.it.:   8.7
      thresh= 5.700E-04 alpha_mix =  0.700 |ddv_scf|^2 =  6.415E-05

      iter #   3 total cpu time :     2.7 secs   av.it.:   7.8
      thresh= 8.010E-04 alpha_mix =  0.700 |ddv_scf|^2 =  2.656E-07

      iter #   4 total cpu time :     2.8 secs   av.it.:   8.3
      thresh= 5.154E-05 alpha_mix =  0.700 |ddv_scf|^2 =  3.886E-09

      iter #   5 total cpu time :     2.9 secs   av.it.:   8.4
      thresh= 6.234E-06 alpha_mix =  0.700 |ddv_scf|^2 =  2.759E-10

      iter #   6 total cpu time :     3.1 secs   av.it.:   8.7
      thresh= 1.661E-06 alpha_mix =  0.700 |ddv_scf|^2 =  1.659E-11

      iter #   7 total cpu time :     3.2 secs   av.it.:   8.8
      thresh= 4.073E-07 alpha_mix =  0.700 |ddv_scf|^2 =  7.375E-13

     End of self-consistent calculation

     Convergence has been achieved 


     Representation #  3 mode #   3

     Self-consistent Calculation

      iter #   1 total cpu time :     3.3 secs   av.it.:   6.3
      thresh= 1.000E-02 alpha_mix =  0.700 |ddv_scf|^2 =  1.537E-04

      iter #   2 total cpu time :     3.5 secs   av.it.:   8.8
      thresh= 1.240E-03 alpha_mix =  0.700 |ddv_scf|^2 =  3.326E-04

      iter #   3 total cpu time :     3.6 secs   av.it.:   7.8
      thresh= 1.824E-03 alpha_mix =  0.700 |ddv_scf|^2 =  1.124E-06

      iter #   4 total cpu time :     3.7 secs   av.it.:   8.4
      thresh= 1.060E-04 alpha_mix =  0.700 |ddv_scf|^2 =  6.396E-09

      iter #   5 total cpu time :     3.9 secs   av.it.:   8.7
      thresh= 7.998E-06 alpha_mix =  0.700 |ddv_scf|^2 =  5.590E-10

      iter #   6 total cpu time :     4.0 secs   av.it.:   8.6
      thresh= 2.364E-06 alpha_mix =  0.700 |ddv_scf|^2 =  1.261E-11

      iter #   7 total cpu time :     4.1 secs   av.it.:   8.4
      thresh= 3.551E-07 alpha_mix =  0.700 |ddv_scf|^2 =  2.905E-13

     End of self-consistent calculation

     Convergence has been achieved 


     Representation #  4 mode #   4

     Self-consistent Calculation

      iter #   1 total cpu time :     4.2 secs   av.it.:   5.3
      thresh= 1.000E-02 alpha_mix =  0.700 |ddv_scf|^2 =  9.532E-06

      iter #   2 total cpu time :     4.4 secs   av.it.:   8.9
      thresh= 3.087E-04 alpha_mix =  0.700 |ddv_scf|^2 =  1.108E-05

      iter #   3 total cpu time :     4.5 secs   av.it.:   8.2
      thresh= 3.328E-04 alpha_mix =  0.700 |ddv_scf|^2 =  3.918E-07

      iter #   4 total cpu time :     4.6 secs   av.it.:   8.2
      thresh= 6.259E-05 alpha_mix =  0.700 |ddv_scf|^2 =  2.965E-09

      iter #   5 total cpu time :     4.8 secs   av.it.:   8.6
      thresh= 5.445E-06 alpha_mix =  0.700 |ddv_scf|^2 =  2.104E-10

      iter #   6 total cpu time :     4.9 secs   av.it.:   8.7
      thresh= 1.451E-06 alpha_mix =  0.700 |ddv_scf|^2 =  1.070E-11

      iter #   7 total cpu time :     5.0 secs   av.it.:   8.7
      thresh= 3.272E-07 alpha_mix =  0.700 |ddv_scf|^2 =  2.451E-13

     End of self-consistent calculation

     Convergence has been achieved 


     Representation #  5 mode #   5

     Self-consistent Calculation

      iter #   1 total cpu time :     5.2 secs   av.it.:   4.8
      thresh= 1.000E-02 alpha_mix =  0.700 |ddv_scf|^2 =  1.374E-06

      iter #   2 total cpu time :     5.3 secs   av.it.:   8.4
      thresh= 1.172E-04 alpha_mix =  0.700 |ddv_scf|^2 =  1.985E-07

      iter #   3 total cpu time :     5.4 secs   av.it.:   8.2
      thresh= 4.456E-05 alpha_mix =  0.700 |ddv_scf|^2 =  6.738E-10

      iter #   4 total cpu time :     5.5 secs   av.it.:   7.8
      thresh= 2.596E-06 alpha_mix =  0.700 |ddv_scf|^2 =  1.803E-11

      iter #   5 total cpu time :     5.7 secs   av.it.:   7.5
      thresh= 4.246E-07 alpha_mix =  0.700 |ddv_scf|^2 =  6.542E-15

     End of self-consistent calculation

     Convergence has been achieved 


     Representation #  6 mode #   6

     Self-consistent Calculation

      iter #   1 total cpu time :     5.8 secs   av.it.:   5.8
      thresh= 1.000E-02 alpha_mix =  0.700 |ddv_scf|^2 =  1.022E-05

      iter #   2 total cpu time :     5.9 secs   av.it.:   8.3
      thresh= 3.196E-04 alpha_mix =  0.700 |ddv_scf|^2 =  1.637E-06

      iter #   3 total cpu time :     6.0 secs   av.it.:   8.2
      thresh= 1.279E-04 alpha_mix =  0.700 |ddv_scf|^2 =  3.973E-10

      iter #   4 total cpu time :     6.2 secs   av.it.:   8.1
      thresh= 1.993E-06 alpha_mix =  0.700 |ddv_scf|^2 =  1.428E-11

      iter #   5 total cpu time :     6.3 secs   av.it.:   8.2
      thresh= 3.779E-07 alpha_mix =  0.700 |ddv_scf|^2 =  5.662E-14

     End of self-consistent calculation

     Convergence has been achieved 
 
     Number of q in the star =   12
     List of q in the star:
          1   0.750000000  -0.250000000   0.750000000
          2  -0.750000000  -0.750000000  -0.250000000
          3  -0.750000000   0.750000000   0.250000000
          4  -0.750000000   0.250000000   0.750000000
          5   0.750000000   0.250000000  -0.750000000
          6   0.750000000   0.750000000  -0.250000000
          7   0.750000000  -0.750000000   0.250000000
          8  -0.250000000   0.750000000   0.750000000
          9   0.250000000   0.750000000  -0.750000000
         10  -0.250000000  -0.750000000  -0.750000000
         11   0.250000000  -0.750000000   0.750000000
         12  -0.750000000  -0.250000000  -0.750000000
     In addition there is the -q list: 
          1  -0.750000000   0.250000000  -0.750000000
          2   0.750000000   0.750000000   0.250000000
          3   0.750000000  -0.750000000  -0.250000000
          4   0.750000000  -0.250000000  -0.750000000
          5  -0.750000000  -0.250000000   0.750000000
          6  -0.750000000  -0.750000000   0.250000000
          7  -0.750000000   0.750000000  -0.250000000
          8   0.250000000  -0.750000000  -0.750000000
          9  -0.250000000  -0.750000000   0.750000000
         10   0.250000000   0.750000000   0.750000000
         11  -0.250000000   0.750000000  -0.750000000
         12   0.750000000   0.250000000   0.750000000

     Diagonalizing the dynamical matrix

     q = (    0.750000000  -0.250000000   0.750000000 ) 

 **************************************************************************
     freq (    1) =       2.620958 [THz] =      87.425748 [cm-1]
     freq (    2) =       3.804615 [THz] =     126.908310 [cm-1]
     freq (    3) =       5.902907 [THz] =     196.899768 [cm-1]
     freq (    4) =      10.569011 [THz] =     352.544272 [cm-1]
     freq (    5) =      10.588654 [THz] =     353.199470 [cm-1]
     freq (    6) =      11.478100 [THz] =     382.868208 [cm-1]
 **************************************************************************

     Mode symmetry, C_s (m)     point group:

     freq (  1 -  1) =         87.4  [cm-1]   --> A''                
     freq (  2 -  2) =        126.9  [cm-1]   --> A'                 
     freq (  3 -  3) =        196.9  [cm-1]   --> A'                 
     freq (  4 -  4) =        352.5  [cm-1]   --> A''                
     freq (  5 -  5) =        353.2  [cm-1]   --> A'                 
     freq (  6 -  6) =        382.9  [cm-1]   --> A'                 
 
     init_run     :      0.02s CPU      0.02s WALL (       1 calls)
     electrons    :      0.33s CPU      0.34s WALL (       1 calls)

     Called by init_run:
     wfcinit      :      0.00s CPU      0.00s WALL (       1 calls)
     potinit      :      0.00s CPU      0.00s WALL (       1 calls)

     Called by electrons:
     c_bands      :      0.33s CPU      0.34s WALL (       1 calls)
     v_of_rho     :      0.00s CPU      0.00s WALL (       2 calls)

     Called by c_bands:
     init_us_2    :      0.01s CPU      0.04s WALL (     960 calls)
     cegterg      :      0.26s CPU      0.28s WALL (      40 calls)

     Called by sum_band:

     Called by *egterg:
     h_psi        :      2.99s CPU      3.17s WALL (    7614 calls)
     g_psi        :      0.00s CPU      0.00s WALL (     440 calls)
     cdiaghg      :      0.05s CPU      0.04s WALL (     480 calls)

     Called by h_psi:
     h_psi:pot    :      2.97s CPU      3.14s WALL (    7614 calls)
     h_psi:calbec :      0.16s CPU      0.16s WALL (    7614 calls)
     add_vuspsi   :      0.07s CPU      0.08s WALL (    7614 calls)

     General routines
     calbec       :      0.25s CPU      0.25s WALL (   15388 calls)
     fft          :      0.01s CPU      0.01s WALL (     121 calls)
     ffts         :      0.01s CPU      0.01s WALL (     156 calls)
     fftw         :      3.00s CPU      3.16s WALL (   66710 calls)
     davcio       :      0.03s CPU      0.04s WALL (    2572 calls)
 
     Parallel routines
     fft_scatter  :      0.80s CPU      0.86s WALL (   66987 calls)
 
     PHONON       :     5.54s CPU         6.32s WALL

     INITIALIZATION: 
     phq_setup    :      0.00s CPU      0.01s WALL (       1 calls)
     phq_init     :      0.03s CPU      0.03s WALL (       1 calls)
 
     phq_init     :      0.03s CPU      0.03s WALL (       1 calls)
     init_vloc    :      0.00s CPU      0.00s WALL (       2 calls)
     init_us_1    :      0.02s CPU      0.02s WALL (       2 calls)
 
     DYNAMICAL MATRIX:
     dynmat0      :      0.01s CPU      0.01s WALL (       1 calls)
     phqscf       :      4.64s CPU      4.92s WALL (       1 calls)
     dynmatrix    :      0.00s CPU      0.00s WALL (       1 calls)
 
     phqscf       :      4.64s CPU      4.92s WALL (       1 calls)
     solve_linter :      4.61s CPU      4.89s WALL (       6 calls)
     drhodv       :      0.02s CPU      0.02s WALL (       6 calls)
 
     dynmat0      :      0.01s CPU      0.01s WALL (       1 calls)
     dynmat_us    :      0.01s CPU      0.01s WALL (       1 calls)
     d2ionq       :      0.00s CPU      0.00s WALL (       1 calls)
 
     dynmat_us    :      0.01s CPU      0.01s WALL (       1 calls)
 
     phqscf       :      4.64s CPU      4.92s WALL (       1 calls)
     solve_linter :      4.61s CPU      4.89s WALL (       6 calls)
 
     solve_linter :      4.61s CPU      4.89s WALL (       6 calls)
     dvqpsi_us    :      0.06s CPU      0.07s WALL (     120 calls)
     ortho        :      0.02s CPU      0.02s WALL (     760 calls)
     cgsolve      :      3.23s CPU      3.41s WALL (     760 calls)
     incdrhoscf   :      0.36s CPU      0.38s WALL (     760 calls)
     vpsifft      :      0.28s CPU      0.29s WALL (     640 calls)
     dv_of_drho   :      0.01s CPU      0.01s WALL (      38 calls)
     mix_pot      :      0.02s CPU      0.02s WALL (      38 calls)
     psymdvscf    :      0.04s CPU      0.04s WALL (      38 calls)
 
     dvqpsi_us    :      0.06s CPU      0.07s WALL (     120 calls)
     dvqpsi_us_on :      0.01s CPU      0.00s WALL (     120 calls)
 
     cgsolve      :      3.23s CPU      3.41s WALL (     760 calls)
     ch_psi       :      3.07s CPU      3.26s WALL (    7094 calls)
 
     ch_psi       :      3.07s CPU      3.26s WALL (    7094 calls)
     last         :      0.25s CPU      0.27s WALL (    7094 calls)
 
     add_vuspsi   :      0.07s CPU      0.08s WALL (    7614 calls)
 
     incdrhoscf   :      0.36s CPU      0.38s WALL (     760 calls)
 
 
      General routines
     calbec       :      0.25s CPU      0.25s WALL (   15388 calls)
     fft          :      0.01s CPU      0.01s WALL (     121 calls)
     ffts         :      0.01s CPU      0.01s WALL (     156 calls)
     fftw         :      3.00s CPU      3.16s WALL (   66710 calls)
     davcio       :      0.03s CPU      0.04s WALL (    2572 calls)
     write_rec    :      0.06s CPU      0.07s WALL (      44 calls)
 
 
     PHONON       :     5.54s CPU         6.32s WALL

 
   This run was terminated on:  11:37:50  25Aug2016            

=------------------------------------------------------------------------------=
   JOB DONE.
=------------------------------------------------------------------------------=
