
     Program PHONON v.5.4.0 (svn rev. 12650M) starts on  3Aug2016 at 11:16:33 

     This program is part of the open-source Quantum ESPRESSO suite
     for quantum simulation of materials; please cite
         "P. Giannozzi et al., J. Phys.:Condens. Matter 21 395502 (2009);
          URL http://www.quantum-espresso.org", 
     in publications or presentations arising from this work. More details at
     http://www.quantum-espresso.org/quote
 
           HOST :    x86_64-pc-linux-gnu
           ARCH :    x86_64
             CC :    icc
            CPP :    cpp
            F90 :    ifort
            F77 :    ifort
         DFLAGS :    -D__INTEL -D__FFTW -D__MPI -D__PARA -D__HDF5
      BLAS LIBS :    -lmkl_intel_lp64  -lmkl_sequential -lmkl_core
    LAPACK LIBS :    
       FFT LIBS :    
      MASS LIBS :    

     Parallel version (MPI), running on     2 processors
     R & G space division:  proc/nbgrp/npool/nimage =       2

     Reading data from directory:
     /home/nvarini/espresso_hdf5/espresso/tempdir/3/alas.save

   Info: using nr1, nr2, nr3 values from input

   Info: using nr1, nr2, nr3 values from input

     IMPORTANT: XC functional enforced from input :
     Exchange-correlation      =  SLA  PZ   NOGX NOGC ( 1  1  0  0 0 0)
     Any further DFT definition will be discarded
     Please, verify this is what you really want

 
     Parallelization info
     --------------------
     sticks:   dense  smooth     PW     G-vecs:    dense   smooth      PW
     Min         120     120     42                 1221     1221     229
     Max         121     121     43                 1224     1224     230
     Sum         241     241     85                 2445     2445     459
 


     Dynamical matrices for ( 4, 4, 4)  uniform grid of q-points
     (   8q-points):
       N         xq(1)         xq(2)         xq(3) 
       1   0.000000000   0.000000000   0.000000000
       2  -0.250000000   0.250000000  -0.250000000
       3   0.500000000  -0.500000000   0.500000000
       4   0.000000000   0.500000000   0.000000000
       5   0.750000000  -0.250000000   0.750000000
       6   0.500000000   0.000000000   0.500000000
       7   0.000000000  -1.000000000   0.000000000
       8  -0.500000000  -1.000000000   0.000000000

     Calculation of q =    0.5000000  -0.5000000   0.5000000
 
     Parallelization info
     --------------------
     sticks:   dense  smooth     PW     G-vecs:    dense   smooth      PW
     Min         120     120     42                 1221     1221     267
     Max         121     121     43                 1224     1224     270
     Sum         241     241     85                 2445     2445     537
 


     bravais-lattice index     =            2
     lattice parameter (alat)  =      10.5000  a.u.
     unit-cell volume          =     289.4062 (a.u.)^3
     number of atoms/cell      =            2
     number of atomic types    =            2
     number of electrons       =         8.00
     number of Kohn-Sham states=            4
     kinetic-energy cutoff     =      16.0000  Ry
     charge density cutoff     =      64.0000  Ry
     Exchange-correlation      =  SLA  PZ   NOGX NOGC ( 1  1  0  0 0 0)

     celldm(1)=  10.500000  celldm(2)=   0.000000  celldm(3)=   0.000000
     celldm(4)=   0.000000  celldm(5)=   0.000000  celldm(6)=   0.000000

     crystal axes: (cart. coord. in units of alat)
               a(1) = (  -0.500000   0.000000   0.500000 )  
               a(2) = (   0.000000   0.500000   0.500000 )  
               a(3) = (  -0.500000   0.500000   0.000000 )  

     reciprocal axes: (cart. coord. in units 2 pi/alat)
               b(1) = ( -1.000000 -1.000000  1.000000 )  
               b(2) = (  1.000000  1.000000  1.000000 )  
               b(3) = ( -1.000000  1.000000 -1.000000 )  


     PseudoPot. # 1 for Al read from file:
     /home/nvarini/espresso_hdf5/espresso/pseudo/Al.pz-vbc.UPF
     MD5 check sum: 614279c88ff8d45c90147292d03ed420
     Pseudo is Norm-conserving, Zval =  3.0
     Generated by new atomic code, or converted to UPF format
     Using radial grid of  171 points,  2 beta functions with: 
                l(1) =   0
                l(2) =   1

     PseudoPot. # 2 for As read from file:
     /home/nvarini/espresso_hdf5/espresso/pseudo/As.pz-bhs.UPF
     MD5 check sum: 451cd3365afcfc94d28b1934951c34a8
     Pseudo is Norm-conserving, Zval =  5.0
     Generated by new atomic code, or converted to UPF format
     Using radial grid of  525 points,  2 beta functions with: 
                l(1) =   0
                l(2) =   1

     atomic species   valence    mass     pseudopotential
        Al             3.00    26.98000     Al( 1.00)
        As             5.00    74.92000     As( 1.00)

     24 Sym. Ops. (no inversion) found



   Cartesian axes

     site n.     atom                  positions (alat units)
         1           Al  tau(   1) = (   0.0000000   0.0000000   0.0000000  )
         2           As  tau(   2) = (   0.2500000   0.2500000   0.2500000  )

     number of k points=    10
                       cart. coord. in units 2pi/alat
        k(    1) = (   0.2500000   0.2500000   0.2500000), wk =   0.3750000
        k(    2) = (   0.7500000  -0.2500000   0.7500000), wk =   0.0000000
        k(    3) = (   0.2500000   0.2500000   0.7500000), wk =   0.7500000
        k(    4) = (   0.7500000  -0.2500000   1.2500000), wk =   0.0000000
        k(    5) = (  -0.2500000   0.2500000  -0.2500000), wk =   0.1250000
        k(    6) = (   0.2500000  -0.2500000   0.2500000), wk =   0.0000000
        k(    7) = (  -0.7500000  -0.2500000   0.2500000), wk =   0.3750000
        k(    8) = (  -0.2500000  -0.7500000   0.7500000), wk =   0.0000000
        k(    9) = (  -0.7500000   0.2500000  -0.2500000), wk =   0.3750000
        k(   10) = (  -0.2500000  -0.2500000   0.2500000), wk =   0.0000000

     Dense  grid:     2445 G-vectors     FFT dimensions: (  20,  20,  20)

     Largest allocated arrays     est. size (Mb)     dimensions
        Kohn-Sham Wavefunctions         0.01 Mb     (     158,    4)
        NL pseudopotentials             0.02 Mb     (     158,    8)
        Each V/rho on FFT grid          0.06 Mb     (    4000)
        Each G-vector array             0.01 Mb     (    1224)
        G-vector shells                 0.00 Mb     (      61)
     Largest temporary arrays     est. size (Mb)     dimensions
        Auxiliary wavefunctions         0.04 Mb     (     158,   16)
        Each subspace H/S matrix        0.00 Mb     (      16,   16)
        Each <psi_i|beta_j> matrix      0.00 Mb     (       8,    4)

     The potential is recalculated from file :
     /home/nvarini/espresso_hdf5/espresso/tempdir/3/_ph0/alas.save/charge-density.hdf5

     Starting wfc are    8 atomic wfcs

     Band Structure Calculation
     Davidson diagonalization with overlap

     ethr =  1.25E-10,  avg # of iterations = 11.6

     total cpu time spent up to now is        0.1 secs

     End of band structure calculation

          k = 0.2500 0.2500 0.2500 (   311 PWs)   bands (ev):

    -6.3575   1.7035   4.6970   4.6970

          k = 0.7500-0.2500 0.7500 (   311 PWs)   bands (ev):

    -5.1819  -0.0415   2.3125   3.5086

          k = 0.2500 0.2500 0.7500 (   311 PWs)   bands (ev):

    -5.1819  -0.0415   2.3125   3.5086

          k = 0.7500-0.2500 1.2500 (   311 PWs)   bands (ev):

    -5.1819  -0.0415   2.3125   3.5086

          k =-0.2500 0.2500-0.2500 (   311 PWs)   bands (ev):

    -6.3575   1.7035   4.6970   4.6970

          k = 0.2500-0.2500 0.2500 (   311 PWs)   bands (ev):

    -6.3575   1.7035   4.6970   4.6970

          k =-0.7500-0.2500 0.2500 (   311 PWs)   bands (ev):

    -5.1819  -0.0415   2.3125   3.5086

          k =-0.2500-0.7500 0.7500 (   311 PWs)   bands (ev):

    -5.1819  -0.0415   2.3125   3.5086

          k =-0.7500 0.2500-0.2500 (   311 PWs)   bands (ev):

    -5.1819  -0.0415   2.3125   3.5086

          k =-0.2500-0.2500 0.2500 (   311 PWs)   bands (ev):

    -6.3575   1.7035   4.6970   4.6970

     highest occupied level (ev):     4.6970

     Writing output data file alas.save

                                                                                

     bravais-lattice index     =            2
     lattice parameter (alat)  =      10.5000  a.u.
     unit-cell volume          =     289.4062 (a.u.)^3
     number of atoms/cell      =            2
     number of atomic types    =            2
     kinetic-energy cut-off    =      16.0000  Ry
     charge density cut-off    =      64.0000  Ry
     convergence threshold     =      1.0E-12
     beta                      =       0.7000
     number of iterations used =            4
     Exchange-correlation      =  SLA  PZ   NOGX NOGC ( 1  1  0  0 0 0)


     celldm(1)=   10.50000  celldm(2)=    0.00000  celldm(3)=    0.00000
     celldm(4)=    0.00000  celldm(5)=    0.00000  celldm(6)=    0.00000

     crystal axes: (cart. coord. in units of alat)
               a(1) = ( -0.5000  0.0000  0.5000 )  
               a(2) = (  0.0000  0.5000  0.5000 )  
               a(3) = ( -0.5000  0.5000  0.0000 )  

     reciprocal axes: (cart. coord. in units 2 pi/alat)
               b(1) = ( -1.0000 -1.0000  1.0000 )  
               b(2) = (  1.0000  1.0000  1.0000 )  
               b(3) = ( -1.0000  1.0000 -1.0000 )  


     Atoms inside the unit cell: 

     Cartesian axes

     site n.  atom      mass           positions (alat units)
        1     Al  26.9800   tau(    1) = (    0.00000    0.00000    0.00000  )
        2     As  74.9200   tau(    2) = (    0.25000    0.25000    0.25000  )

     Computing dynamical matrix for 
                    q = (   0.5000000  -0.5000000   0.5000000 )
 
      7 Sym.Ops. (with q -> -q+G )


     G cutoff =  178.7306  (   1224 G-vectors)     FFT grid: ( 20, 20, 20)
     number of k points=    10

     PseudoPot. # 1 for Al read from file:
     /home/nvarini/espresso_hdf5/espresso/pseudo/Al.pz-vbc.UPF
     MD5 check sum: 614279c88ff8d45c90147292d03ed420
     Pseudo is Norm-conserving, Zval =  3.0
     Generated by new atomic code, or converted to UPF format
     Using radial grid of  171 points,  2 beta functions with: 
                l(1) =   0
                l(2) =   1

     PseudoPot. # 2 for As read from file:
     /home/nvarini/espresso_hdf5/espresso/pseudo/As.pz-bhs.UPF
     MD5 check sum: 451cd3365afcfc94d28b1934951c34a8
     Pseudo is Norm-conserving, Zval =  5.0
     Generated by new atomic code, or converted to UPF format
     Using radial grid of  525 points,  2 beta functions with: 
                l(1) =   0
                l(2) =   1

     Mode symmetry, C_3v (3m)   point group:


     Atomic displacements:
     There are   4 irreducible representations

     Representation     1      1 modes -A_1  L_1  To be done

     Representation     2      1 modes -A_1  L_1  To be done

     Representation     3      2 modes -E    L_3  To be done

     Representation     4      2 modes -E    L_3  To be done



     Alpha used in Ewald sum =   0.7000
     PHONON       :     0.60s CPU         0.61s WALL



     Representation #  1 mode #   1

     Self-consistent Calculation

      iter #   1 total cpu time :     0.6 secs   av.it.:   6.0
      thresh= 1.000E-02 alpha_mix =  0.700 |ddv_scf|^2 =  3.570E-04

      iter #   2 total cpu time :     0.7 secs   av.it.:   8.2
      thresh= 1.889E-03 alpha_mix =  0.700 |ddv_scf|^2 =  1.022E-03

      iter #   3 total cpu time :     0.7 secs   av.it.:   7.2
      thresh= 3.198E-03 alpha_mix =  0.700 |ddv_scf|^2 =  5.273E-08

      iter #   4 total cpu time :     0.8 secs   av.it.:   8.0
      thresh= 2.296E-05 alpha_mix =  0.700 |ddv_scf|^2 =  8.123E-09

      iter #   5 total cpu time :     0.8 secs   av.it.:   7.4
      thresh= 9.013E-06 alpha_mix =  0.700 |ddv_scf|^2 =  4.331E-11

      iter #   6 total cpu time :     0.8 secs   av.it.:   8.4
      thresh= 6.581E-07 alpha_mix =  0.700 |ddv_scf|^2 =  4.498E-12

      iter #   7 total cpu time :     0.9 secs   av.it.:   7.6
      thresh= 2.121E-07 alpha_mix =  0.700 |ddv_scf|^2 =  7.707E-15

     End of self-consistent calculation

     Convergence has been achieved 


     Representation #  2 mode #   2

     Self-consistent Calculation

      iter #   1 total cpu time :     0.9 secs   av.it.:   5.4
      thresh= 1.000E-02 alpha_mix =  0.700 |ddv_scf|^2 =  5.802E-05

      iter #   2 total cpu time :     0.9 secs   av.it.:   8.2
      thresh= 7.617E-04 alpha_mix =  0.700 |ddv_scf|^2 =  1.453E-04

      iter #   3 total cpu time :     1.0 secs   av.it.:   7.4
      thresh= 1.205E-03 alpha_mix =  0.700 |ddv_scf|^2 =  6.687E-07

      iter #   4 total cpu time :     1.0 secs   av.it.:   7.4
      thresh= 8.177E-05 alpha_mix =  0.700 |ddv_scf|^2 =  4.032E-09

      iter #   5 total cpu time :     1.0 secs   av.it.:   8.0
      thresh= 6.350E-06 alpha_mix =  0.700 |ddv_scf|^2 =  7.219E-11

      iter #   6 total cpu time :     1.1 secs   av.it.:   8.4
      thresh= 8.496E-07 alpha_mix =  0.700 |ddv_scf|^2 =  1.238E-12

      iter #   7 total cpu time :     1.1 secs   av.it.:   8.0
      thresh= 1.113E-07 alpha_mix =  0.700 |ddv_scf|^2 =  2.315E-14

     End of self-consistent calculation

     Convergence has been achieved 


     Representation #  3 modes #   3  4

     Self-consistent Calculation

      iter #   1 total cpu time :     1.2 secs   av.it.:   6.1
      thresh= 1.000E-02 alpha_mix =  0.700 |ddv_scf|^2 =  1.539E-06

      iter #   2 total cpu time :     1.3 secs   av.it.:   9.2
      thresh= 1.241E-04 alpha_mix =  0.700 |ddv_scf|^2 =  1.303E-07

      iter #   3 total cpu time :     1.3 secs   av.it.:   9.0
      thresh= 3.610E-05 alpha_mix =  0.700 |ddv_scf|^2 =  8.955E-11

      iter #   4 total cpu time :     1.4 secs   av.it.:   9.2
      thresh= 9.463E-07 alpha_mix =  0.700 |ddv_scf|^2 =  6.971E-13

     End of self-consistent calculation

     Convergence has been achieved 


     Representation #  4 modes #   5  6

     Self-consistent Calculation

      iter #   1 total cpu time :     1.5 secs   av.it.:   4.8
      thresh= 1.000E-02 alpha_mix =  0.700 |ddv_scf|^2 =  1.481E-07

      iter #   2 total cpu time :     1.5 secs   av.it.:   9.0
      thresh= 3.848E-05 alpha_mix =  0.700 |ddv_scf|^2 =  8.837E-09

      iter #   3 total cpu time :     1.6 secs   av.it.:   9.0
      thresh= 9.401E-06 alpha_mix =  0.700 |ddv_scf|^2 =  1.468E-10

      iter #   4 total cpu time :     1.7 secs   av.it.:   9.1
      thresh= 1.212E-06 alpha_mix =  0.700 |ddv_scf|^2 =  7.525E-12

      iter #   5 total cpu time :     1.7 secs   av.it.:   8.2
      thresh= 2.743E-07 alpha_mix =  0.700 |ddv_scf|^2 =  2.734E-15

     End of self-consistent calculation

     Convergence has been achieved 
 
     Number of q in the star =    4
     List of q in the star:
          1   0.500000000  -0.500000000   0.500000000
          2  -0.500000000   0.500000000   0.500000000
          3   0.500000000   0.500000000  -0.500000000
          4  -0.500000000  -0.500000000  -0.500000000

     Diagonalizing the dynamical matrix

     q = (    0.500000000  -0.500000000   0.500000000 ) 

 **************************************************************************
     freq (    1) =       2.016728 [THz] =      67.270801 [cm-1]
     freq (    2) =       2.016728 [THz] =      67.270801 [cm-1]
     freq (    3) =       6.494424 [THz] =     216.630676 [cm-1]
     freq (    4) =      10.940869 [THz] =     364.948110 [cm-1]
     freq (    5) =      10.940869 [THz] =     364.948110 [cm-1]
     freq (    6) =      11.551679 [THz] =     385.322549 [cm-1]
 **************************************************************************

     Mode symmetry, C_3v (3m)   point group:

     freq (  1 -  2) =         67.3  [cm-1]   --> E    L_3           
     freq (  3 -  3) =        216.6  [cm-1]   --> A_1  L_1           
     freq (  4 -  5) =        364.9  [cm-1]   --> E    L_3           
     freq (  6 -  6) =        385.3  [cm-1]   --> A_1  L_1           
 
     init_run     :      0.02s CPU      0.02s WALL (       1 calls)
     electrons    :      0.09s CPU      0.09s WALL (       1 calls)

     Called by init_run:
     wfcinit      :      0.00s CPU      0.00s WALL (       1 calls)
     potinit      :      0.00s CPU      0.00s WALL (       1 calls)

     Called by electrons:
     c_bands      :      0.09s CPU      0.09s WALL (       1 calls)
     v_of_rho     :      0.00s CPU      0.00s WALL (       2 calls)

     Called by c_bands:
     init_us_2    :      0.00s CPU      0.01s WALL (     155 calls)
     cegterg      :      0.07s CPU      0.07s WALL (      10 calls)

     Called by sum_band:

     Called by *egterg:
     h_psi        :      0.64s CPU      0.66s WALL (    1615 calls)
     g_psi        :      0.00s CPU      0.00s WALL (     116 calls)
     cdiaghg      :      0.01s CPU      0.01s WALL (     126 calls)

     Called by h_psi:
     add_vuspsi   :      0.02s CPU      0.02s WALL (    1615 calls)

     General routines
     calbec       :      0.05s CPU      0.06s WALL (    3264 calls)
     fft          :      0.01s CPU      0.01s WALL (     103 calls)
     ffts         :      0.00s CPU      0.00s WALL (      54 calls)
     fftw         :      0.64s CPU      0.66s WALL (   14210 calls)
     davcio       :      0.01s CPU      0.01s WALL (     634 calls)
 
     Parallel routines
     fft_scatter  :      0.17s CPU      0.18s WALL (   14367 calls)
 
     PHONON       :     1.68s CPU         1.75s WALL

     INITIALIZATION: 
     phq_setup    :      0.01s CPU      0.01s WALL (       1 calls)
     phq_init     :      0.02s CPU      0.02s WALL (       1 calls)
 
     phq_init     :      0.02s CPU      0.02s WALL (       1 calls)
     init_vloc    :      0.00s CPU      0.00s WALL (       2 calls)
     init_us_1    :      0.02s CPU      0.02s WALL (       2 calls)
 
     DYNAMICAL MATRIX:
     dynmat0      :      0.00s CPU      0.00s WALL (       1 calls)
     phqscf       :      1.08s CPU      1.14s WALL (       1 calls)
     dynmatrix    :      0.00s CPU      0.00s WALL (       1 calls)
 
     phqscf       :      1.08s CPU      1.14s WALL (       1 calls)
     solve_linter :      1.07s CPU      1.12s WALL (       4 calls)
     drhodv       :      0.01s CPU      0.01s WALL (       4 calls)
 
     dynmat0      :      0.00s CPU      0.00s WALL (       1 calls)
     dynmat_us    :      0.00s CPU      0.00s WALL (       1 calls)
     d2ionq       :      0.00s CPU      0.00s WALL (       1 calls)
 
     dynmat_us    :      0.00s CPU      0.00s WALL (       1 calls)
 
     phqscf       :      1.08s CPU      1.14s WALL (       1 calls)
     solve_linter :      1.07s CPU      1.12s WALL (       4 calls)
 
     solve_linter :      1.07s CPU      1.12s WALL (       4 calls)
     dvqpsi_us    :      0.02s CPU      0.02s WALL (      30 calls)
     ortho        :      0.01s CPU      0.01s WALL (     160 calls)
     cgsolve      :      0.67s CPU      0.70s WALL (     160 calls)
     incdrhoscf   :      0.08s CPU      0.08s WALL (     160 calls)
     vpsifft      :      0.05s CPU      0.06s WALL (     130 calls)
     dv_of_drho   :      0.01s CPU      0.01s WALL (      32 calls)
     mix_pot      :      0.02s CPU      0.02s WALL (      23 calls)
     psymdvscf    :      0.10s CPU      0.10s WALL (      23 calls)
 
     dvqpsi_us    :      0.02s CPU      0.02s WALL (      30 calls)
     dvqpsi_us_on :      0.00s CPU      0.00s WALL (      30 calls)
 
     cgsolve      :      0.67s CPU      0.70s WALL (     160 calls)
     ch_psi       :      0.65s CPU      0.67s WALL (    1479 calls)
 
     ch_psi       :      0.65s CPU      0.67s WALL (    1479 calls)
     last         :      0.05s CPU      0.06s WALL (    1479 calls)
 
     add_vuspsi   :      0.02s CPU      0.02s WALL (    1615 calls)
 
     incdrhoscf   :      0.08s CPU      0.08s WALL (     160 calls)
 
 
      General routines
     calbec       :      0.05s CPU      0.06s WALL (    3264 calls)
     fft          :      0.01s CPU      0.01s WALL (     103 calls)
     ffts         :      0.00s CPU      0.00s WALL (      54 calls)
     fftw         :      0.64s CPU      0.66s WALL (   14210 calls)
     davcio       :      0.01s CPU      0.01s WALL (     634 calls)
     write_rec    :      0.04s CPU      0.04s WALL (      27 calls)
 
 
     PHONON       :     1.68s CPU         1.75s WALL

 
   This run was terminated on:  11:16:35   3Aug2016            

=------------------------------------------------------------------------------=
   JOB DONE.
=------------------------------------------------------------------------------=
